<?xml version="1.0" encoding="ISO-8859-1"?>
<modeling>
 <generator>
  <i name="program" type="string">vasp </i>
  <i name="version" type="string">6.4.1  </i>
  <i name="subversion" type="string">05Apr23 (build Mar 23 2024 14:18:18) complex                          parallel </i>
  <i name="platform" type="string">LinuxIFC </i>
  <i name="date" type="string">2024 03 23 </i>
  <i name="time" type="string">14:36:13 </i>
 </generator>
 <incar>
  <i type="string" name="SYSTEM">default</i>
  <i type="string" name="PREC">accurate</i>
  <i type="logical" name="ADDGRID"> T  </i>
  <i name="EDIFF">      0.00000100</i>
  <i type="int" name="ISYM">     0</i>
  <i name="ENCUT">    300.00000000</i>
  <i type="logical" name="LREAL"> F  </i>
  <i type="int" name="ISMEAR">     0</i>
  <i name="SIGMA">      0.01000000</i>
  <i type="logical" name="LWAVE"> F  </i>
  <i type="logical" name="LCHARG"> F  </i>
  <i type="logical" name="LWAP"> T  </i>
 </incar>
 <primitive_cell>
  <structure name="primitive_cell" >
   <crystal>
    <varray name="basis" >
     <v>       3.57361068       0.00000000       0.00000000 </v>
     <v>       0.00000000       3.57361068       0.00000000 </v>
     <v>       0.00000000       0.00000000       3.57361068 </v>
    </varray>
    <i name="volume">     45.63748602 </i>
    <varray name="rec_basis" >
     <v>       0.27982903       0.00000000       0.00000000 </v>
     <v>       0.00000000       0.27982903       0.00000000 </v>
     <v>       0.00000000       0.00000000       0.27982903 </v>
    </varray>
   </crystal>
   <varray name="positions" >
    <v>       0.00279829       0.00000000       0.00000000 </v>
    <v>       0.50000000       0.50000000       0.00000000 </v>
    <v>       0.50000000       0.00000000       0.50000000 </v>
    <v>       0.00000000       0.50000000       0.50000000 </v>
    <v>       0.25000000       0.25000000       0.25000000 </v>
    <v>       0.75000000       0.75000000       0.25000000 </v>
    <v>       0.75000000       0.25000000       0.75000000 </v>
    <v>       0.25000000       0.75000000       0.75000000 </v>
   </varray>
  </structure>
  <varray name="primitive_index" >
   <v type="int" >        1 </v>
   <v type="int" >        2 </v>
   <v type="int" >        3 </v>
   <v type="int" >        4 </v>
   <v type="int" >        5 </v>
   <v type="int" >        6 </v>
   <v type="int" >        7 </v>
   <v type="int" >        8 </v>
  </varray>
 </primitive_cell>
 <kpoints>
  <generation param="Gamma">
   <v type="int" name="divisions">       9        9        9 </v>
   <v name="usershift">      0.00000000       0.00000000       0.00000000 </v>
   <v name="genvec1">      0.11111111       0.00000000       0.00000000 </v>
   <v name="genvec2">      0.00000000       0.11111111       0.00000000 </v>
   <v name="genvec3">      0.00000000       0.00000000       0.11111111 </v>
   <v name="shift">      0.00000000       0.00000000       0.00000000 </v>
  </generation>
  <varray name="kpointlist" >
   <v>       0.00000000       0.00000000       0.00000000 </v>
   <v>       0.11111111       0.00000000       0.00000000 </v>
   <v>       0.00000000       0.11111111       0.00000000 </v>
   <v>       0.00000000       0.00000000       0.11111111 </v>
   <v>       0.22222222       0.00000000       0.00000000 </v>
   <v>       0.00000000       0.22222222       0.00000000 </v>
   <v>       0.00000000       0.00000000       0.22222222 </v>
   <v>       0.33333333       0.00000000       0.00000000 </v>
   <v>       0.00000000       0.33333333       0.00000000 </v>
   <v>       0.00000000       0.00000000       0.33333333 </v>
   <v>       0.44444444       0.00000000       0.00000000 </v>
   <v>       0.00000000       0.44444444       0.00000000 </v>
   <v>       0.00000000       0.00000000       0.44444444 </v>
   <v>       0.11111111       0.11111111       0.00000000 </v>
   <v>       0.00000000       0.11111111       0.11111111 </v>
   <v>       0.11111111       0.00000000       0.11111111 </v>
   <v>      -0.11111111       0.11111111       0.00000000 </v>
   <v>      -0.11111111       0.00000000       0.11111111 </v>
   <v>       0.00000000      -0.11111111       0.11111111 </v>
   <v>       0.22222222       0.11111111       0.00000000 </v>
   <v>       0.00000000       0.22222222       0.11111111 </v>
   <v>       0.11111111       0.00000000       0.22222222 </v>
   <v>      -0.11111111       0.22222222       0.00000000 </v>
   <v>      -0.22222222       0.00000000       0.11111111 </v>
   <v>       0.00000000       0.11111111       0.22222222 </v>
   <v>       0.00000000      -0.22222222       0.11111111 </v>
   <v>      -0.11111111       0.00000000       0.22222222 </v>
   <v>       0.22222222       0.00000000       0.11111111 </v>
   <v>       0.00000000      -0.11111111       0.22222222 </v>
   <v>       0.22222222      -0.11111111       0.00000000 </v>
   <v>       0.11111111       0.22222222       0.00000000 </v>
   <v>       0.33333333       0.11111111       0.00000000 </v>
   <v>       0.00000000       0.33333333       0.11111111 </v>
   <v>       0.11111111       0.00000000       0.33333333 </v>
   <v>      -0.11111111       0.33333333       0.00000000 </v>
   <v>      -0.33333333       0.00000000       0.11111111 </v>
   <v>       0.00000000       0.11111111       0.33333333 </v>
   <v>       0.00000000      -0.33333333       0.11111111 </v>
   <v>      -0.11111111       0.00000000       0.33333333 </v>
   <v>       0.33333333       0.00000000       0.11111111 </v>
   <v>       0.00000000      -0.11111111       0.33333333 </v>
   <v>       0.33333333      -0.11111111       0.00000000 </v>
   <v>       0.11111111       0.33333333       0.00000000 </v>
   <v>       0.44444444       0.11111111       0.00000000 </v>
   <v>       0.00000000       0.44444444       0.11111111 </v>
   <v>       0.11111111       0.00000000       0.44444444 </v>
   <v>      -0.11111111       0.44444444       0.00000000 </v>
   <v>      -0.44444444       0.00000000       0.11111111 </v>
   <v>       0.00000000       0.11111111       0.44444444 </v>
   <v>       0.00000000      -0.44444444       0.11111111 </v>
   <v>      -0.11111111       0.00000000       0.44444444 </v>
   <v>       0.44444444       0.00000000       0.11111111 </v>
   <v>       0.00000000      -0.11111111       0.44444444 </v>
   <v>       0.44444444      -0.11111111       0.00000000 </v>
   <v>       0.11111111       0.44444444       0.00000000 </v>
   <v>       0.22222222       0.22222222       0.00000000 </v>
   <v>       0.00000000       0.22222222       0.22222222 </v>
   <v>       0.22222222       0.00000000       0.22222222 </v>
   <v>      -0.22222222       0.22222222       0.00000000 </v>
   <v>      -0.22222222       0.00000000       0.22222222 </v>
   <v>       0.00000000      -0.22222222       0.22222222 </v>
   <v>       0.33333333       0.22222222       0.00000000 </v>
   <v>       0.00000000       0.33333333       0.22222222 </v>
   <v>       0.22222222       0.00000000       0.33333333 </v>
   <v>      -0.22222222       0.33333333       0.00000000 </v>
   <v>      -0.33333333       0.00000000       0.22222222 </v>
   <v>       0.00000000       0.22222222       0.33333333 </v>
   <v>       0.00000000      -0.33333333       0.22222222 </v>
   <v>      -0.22222222       0.00000000       0.33333333 </v>
   <v>       0.33333333       0.00000000       0.22222222 </v>
   <v>       0.00000000      -0.22222222       0.33333333 </v>
   <v>       0.33333333      -0.22222222       0.00000000 </v>
   <v>       0.22222222       0.33333333       0.00000000 </v>
   <v>       0.44444444       0.22222222       0.00000000 </v>
   <v>       0.00000000       0.44444444       0.22222222 </v>
   <v>       0.22222222       0.00000000       0.44444444 </v>
   <v>      -0.22222222       0.44444444       0.00000000 </v>
   <v>      -0.44444444       0.00000000       0.22222222 </v>
   <v>       0.00000000       0.22222222       0.44444444 </v>
   <v>       0.00000000      -0.44444444       0.22222222 </v>
   <v>      -0.22222222       0.00000000       0.44444444 </v>
   <v>       0.44444444       0.00000000       0.22222222 </v>
   <v>       0.00000000      -0.22222222       0.44444444 </v>
   <v>       0.44444444      -0.22222222       0.00000000 </v>
   <v>       0.22222222       0.44444444       0.00000000 </v>
   <v>       0.33333333       0.33333333       0.00000000 </v>
   <v>       0.00000000       0.33333333       0.33333333 </v>
   <v>       0.33333333       0.00000000       0.33333333 </v>
   <v>      -0.33333333       0.33333333       0.00000000 </v>
   <v>      -0.33333333       0.00000000       0.33333333 </v>
   <v>       0.00000000      -0.33333333       0.33333333 </v>
   <v>       0.44444444       0.33333333       0.00000000 </v>
   <v>       0.00000000       0.44444444       0.33333333 </v>
   <v>       0.33333333       0.00000000       0.44444444 </v>
   <v>      -0.33333333       0.44444444       0.00000000 </v>
   <v>      -0.44444444       0.00000000       0.33333333 </v>
   <v>       0.00000000       0.33333333       0.44444444 </v>
   <v>       0.00000000      -0.44444444       0.33333333 </v>
   <v>      -0.33333333       0.00000000       0.44444444 </v>
   <v>       0.44444444       0.00000000       0.33333333 </v>
   <v>       0.00000000      -0.33333333       0.44444444 </v>
   <v>       0.44444444      -0.33333333       0.00000000 </v>
   <v>       0.33333333       0.44444444       0.00000000 </v>
   <v>       0.44444444       0.44444444       0.00000000 </v>
   <v>       0.00000000       0.44444444       0.44444444 </v>
   <v>       0.44444444       0.00000000       0.44444444 </v>
   <v>      -0.44444444       0.44444444       0.00000000 </v>
   <v>      -0.44444444       0.00000000       0.44444444 </v>
   <v>       0.00000000      -0.44444444       0.44444444 </v>
   <v>       0.11111111       0.11111111       0.11111111 </v>
   <v>      -0.11111111       0.11111111       0.11111111 </v>
   <v>      -0.11111111      -0.11111111       0.11111111 </v>
   <v>       0.11111111      -0.11111111       0.11111111 </v>
   <v>       0.22222222       0.11111111       0.11111111 </v>
   <v>       0.11111111       0.22222222       0.11111111 </v>
   <v>       0.11111111       0.11111111       0.22222222 </v>
   <v>      -0.11111111       0.22222222       0.11111111 </v>
   <v>      -0.22222222       0.11111111       0.11111111 </v>
   <v>      -0.11111111       0.11111111       0.22222222 </v>
   <v>      -0.22222222      -0.11111111       0.11111111 </v>
   <v>      -0.11111111      -0.22222222       0.11111111 </v>
   <v>      -0.11111111      -0.11111111       0.22222222 </v>
   <v>       0.11111111      -0.22222222       0.11111111 </v>
   <v>       0.22222222      -0.11111111       0.11111111 </v>
   <v>       0.11111111      -0.11111111       0.22222222 </v>
   <v>       0.33333333       0.11111111       0.11111111 </v>
   <v>       0.11111111       0.33333333       0.11111111 </v>
   <v>       0.11111111       0.11111111       0.33333333 </v>
   <v>      -0.11111111       0.33333333       0.11111111 </v>
   <v>      -0.33333333       0.11111111       0.11111111 </v>
   <v>      -0.11111111       0.11111111       0.33333333 </v>
   <v>      -0.33333333      -0.11111111       0.11111111 </v>
   <v>      -0.11111111      -0.33333333       0.11111111 </v>
   <v>      -0.11111111      -0.11111111       0.33333333 </v>
   <v>       0.11111111      -0.33333333       0.11111111 </v>
   <v>       0.33333333      -0.11111111       0.11111111 </v>
   <v>       0.11111111      -0.11111111       0.33333333 </v>
   <v>       0.44444444       0.11111111       0.11111111 </v>
   <v>       0.11111111       0.44444444       0.11111111 </v>
   <v>       0.11111111       0.11111111       0.44444444 </v>
   <v>      -0.11111111       0.44444444       0.11111111 </v>
   <v>      -0.44444444       0.11111111       0.11111111 </v>
   <v>      -0.11111111       0.11111111       0.44444444 </v>
   <v>      -0.44444444      -0.11111111       0.11111111 </v>
   <v>      -0.11111111      -0.44444444       0.11111111 </v>
   <v>      -0.11111111      -0.11111111       0.44444444 </v>
   <v>       0.11111111      -0.44444444       0.11111111 </v>
   <v>       0.44444444      -0.11111111       0.11111111 </v>
   <v>       0.11111111      -0.11111111       0.44444444 </v>
   <v>       0.22222222       0.22222222       0.11111111 </v>
   <v>       0.11111111       0.22222222       0.22222222 </v>
   <v>       0.22222222       0.11111111       0.22222222 </v>
   <v>      -0.22222222       0.22222222       0.11111111 </v>
   <v>      -0.22222222       0.11111111       0.22222222 </v>
   <v>      -0.11111111       0.22222222       0.22222222 </v>
   <v>      -0.22222222      -0.22222222       0.11111111 </v>
   <v>      -0.11111111      -0.22222222       0.22222222 </v>
   <v>      -0.22222222      -0.11111111       0.22222222 </v>
   <v>       0.22222222      -0.22222222       0.11111111 </v>
   <v>       0.22222222      -0.11111111       0.22222222 </v>
   <v>       0.11111111      -0.22222222       0.22222222 </v>
   <v>       0.33333333       0.22222222       0.11111111 </v>
   <v>       0.11111111       0.33333333       0.22222222 </v>
   <v>       0.22222222       0.11111111       0.33333333 </v>
   <v>      -0.22222222       0.33333333       0.11111111 </v>
   <v>      -0.33333333       0.11111111       0.22222222 </v>
   <v>      -0.11111111       0.22222222       0.33333333 </v>
   <v>      -0.33333333      -0.22222222       0.11111111 </v>
   <v>      -0.11111111      -0.33333333       0.22222222 </v>
   <v>      -0.22222222      -0.11111111       0.33333333 </v>
   <v>       0.22222222      -0.33333333       0.11111111 </v>
   <v>       0.33333333      -0.11111111       0.22222222 </v>
   <v>       0.11111111      -0.22222222       0.33333333 </v>
   <v>       0.11111111      -0.33333333      -0.22222222 </v>
   <v>       0.22222222      -0.11111111      -0.33333333 </v>
   <v>       0.33333333      -0.22222222      -0.11111111 </v>
   <v>       0.11111111       0.22222222      -0.33333333 </v>
   <v>       0.22222222       0.33333333      -0.11111111 </v>
   <v>       0.33333333       0.11111111      -0.22222222 </v>
   <v>      -0.22222222       0.11111111      -0.33333333 </v>
   <v>      -0.33333333       0.22222222      -0.11111111 </v>
   <v>      -0.11111111       0.33333333      -0.22222222 </v>
   <v>      -0.33333333      -0.11111111      -0.22222222 </v>
   <v>      -0.22222222      -0.33333333      -0.11111111 </v>
   <v>      -0.11111111      -0.22222222      -0.33333333 </v>
   <v>       0.44444444       0.22222222       0.11111111 </v>
   <v>       0.11111111       0.44444444       0.22222222 </v>
   <v>       0.22222222       0.11111111       0.44444444 </v>
   <v>      -0.22222222       0.44444444       0.11111111 </v>
   <v>      -0.44444444       0.11111111       0.22222222 </v>
   <v>      -0.11111111       0.22222222       0.44444444 </v>
   <v>      -0.44444444      -0.22222222       0.11111111 </v>
   <v>      -0.11111111      -0.44444444       0.22222222 </v>
   <v>      -0.22222222      -0.11111111       0.44444444 </v>
   <v>       0.22222222      -0.44444444       0.11111111 </v>
   <v>       0.44444444      -0.11111111       0.22222222 </v>
   <v>       0.11111111      -0.22222222       0.44444444 </v>
   <v>       0.11111111      -0.44444444      -0.22222222 </v>
   <v>       0.22222222      -0.11111111      -0.44444444 </v>
   <v>       0.44444444      -0.22222222      -0.11111111 </v>
   <v>       0.11111111       0.22222222      -0.44444444 </v>
   <v>       0.22222222       0.44444444      -0.11111111 </v>
   <v>       0.44444444       0.11111111      -0.22222222 </v>
   <v>      -0.22222222       0.11111111      -0.44444444 </v>
   <v>      -0.44444444       0.22222222      -0.11111111 </v>
   <v>      -0.11111111       0.44444444      -0.22222222 </v>
   <v>      -0.44444444      -0.11111111      -0.22222222 </v>
   <v>      -0.22222222      -0.44444444      -0.11111111 </v>
   <v>      -0.11111111      -0.22222222      -0.44444444 </v>
   <v>       0.33333333       0.33333333       0.11111111 </v>
   <v>       0.11111111       0.33333333       0.33333333 </v>
   <v>       0.33333333       0.11111111       0.33333333 </v>
   <v>      -0.33333333       0.33333333       0.11111111 </v>
   <v>      -0.33333333       0.11111111       0.33333333 </v>
   <v>      -0.11111111       0.33333333       0.33333333 </v>
   <v>      -0.33333333      -0.33333333       0.11111111 </v>
   <v>      -0.11111111      -0.33333333       0.33333333 </v>
   <v>      -0.33333333      -0.11111111       0.33333333 </v>
   <v>       0.33333333      -0.33333333       0.11111111 </v>
   <v>       0.33333333      -0.11111111       0.33333333 </v>
   <v>       0.11111111      -0.33333333       0.33333333 </v>
   <v>       0.44444444       0.33333333       0.11111111 </v>
   <v>       0.11111111       0.44444444       0.33333333 </v>
   <v>       0.33333333       0.11111111       0.44444444 </v>
   <v>      -0.33333333       0.44444444       0.11111111 </v>
   <v>      -0.44444444       0.11111111       0.33333333 </v>
   <v>      -0.11111111       0.33333333       0.44444444 </v>
   <v>      -0.44444444      -0.33333333       0.11111111 </v>
   <v>      -0.11111111      -0.44444444       0.33333333 </v>
   <v>      -0.33333333      -0.11111111       0.44444444 </v>
   <v>       0.33333333      -0.44444444       0.11111111 </v>
   <v>       0.44444444      -0.11111111       0.33333333 </v>
   <v>       0.11111111      -0.33333333       0.44444444 </v>
   <v>       0.11111111      -0.44444444      -0.33333333 </v>
   <v>       0.33333333      -0.11111111      -0.44444444 </v>
   <v>       0.44444444      -0.33333333      -0.11111111 </v>
   <v>       0.11111111       0.33333333      -0.44444444 </v>
   <v>       0.33333333       0.44444444      -0.11111111 </v>
   <v>       0.44444444       0.11111111      -0.33333333 </v>
   <v>      -0.33333333       0.11111111      -0.44444444 </v>
   <v>      -0.44444444       0.33333333      -0.11111111 </v>
   <v>      -0.11111111       0.44444444      -0.33333333 </v>
   <v>      -0.44444444      -0.11111111      -0.33333333 </v>
   <v>      -0.33333333      -0.44444444      -0.11111111 </v>
   <v>      -0.11111111      -0.33333333      -0.44444444 </v>
   <v>       0.44444444       0.44444444       0.11111111 </v>
   <v>       0.11111111       0.44444444       0.44444444 </v>
   <v>       0.44444444       0.11111111       0.44444444 </v>
   <v>      -0.44444444       0.44444444       0.11111111 </v>
   <v>      -0.44444444       0.11111111       0.44444444 </v>
   <v>      -0.11111111       0.44444444       0.44444444 </v>
   <v>      -0.44444444      -0.44444444       0.11111111 </v>
   <v>      -0.11111111      -0.44444444       0.44444444 </v>
   <v>      -0.44444444      -0.11111111       0.44444444 </v>
   <v>       0.44444444      -0.44444444       0.11111111 </v>
   <v>       0.44444444      -0.11111111       0.44444444 </v>
   <v>       0.11111111      -0.44444444       0.44444444 </v>
   <v>       0.22222222       0.22222222       0.22222222 </v>
   <v>      -0.22222222       0.22222222       0.22222222 </v>
   <v>      -0.22222222      -0.22222222       0.22222222 </v>
   <v>       0.22222222      -0.22222222       0.22222222 </v>
   <v>       0.33333333       0.22222222       0.22222222 </v>
   <v>       0.22222222       0.33333333       0.22222222 </v>
   <v>       0.22222222       0.22222222       0.33333333 </v>
   <v>      -0.22222222       0.33333333       0.22222222 </v>
   <v>      -0.33333333       0.22222222       0.22222222 </v>
   <v>      -0.22222222       0.22222222       0.33333333 </v>
   <v>      -0.33333333      -0.22222222       0.22222222 </v>
   <v>      -0.22222222      -0.33333333       0.22222222 </v>
   <v>      -0.22222222      -0.22222222       0.33333333 </v>
   <v>       0.22222222      -0.33333333       0.22222222 </v>
   <v>       0.33333333      -0.22222222       0.22222222 </v>
   <v>       0.22222222      -0.22222222       0.33333333 </v>
   <v>       0.44444444       0.22222222       0.22222222 </v>
   <v>       0.22222222       0.44444444       0.22222222 </v>
   <v>       0.22222222       0.22222222       0.44444444 </v>
   <v>      -0.22222222       0.44444444       0.22222222 </v>
   <v>      -0.44444444       0.22222222       0.22222222 </v>
   <v>      -0.22222222       0.22222222       0.44444444 </v>
   <v>      -0.44444444      -0.22222222       0.22222222 </v>
   <v>      -0.22222222      -0.44444444       0.22222222 </v>
   <v>      -0.22222222      -0.22222222       0.44444444 </v>
   <v>       0.22222222      -0.44444444       0.22222222 </v>
   <v>       0.44444444      -0.22222222       0.22222222 </v>
   <v>       0.22222222      -0.22222222       0.44444444 </v>
   <v>       0.33333333       0.33333333       0.22222222 </v>
   <v>       0.22222222       0.33333333       0.33333333 </v>
   <v>       0.33333333       0.22222222       0.33333333 </v>
   <v>      -0.33333333       0.33333333       0.22222222 </v>
   <v>      -0.33333333       0.22222222       0.33333333 </v>
   <v>      -0.22222222       0.33333333       0.33333333 </v>
   <v>      -0.33333333      -0.33333333       0.22222222 </v>
   <v>      -0.22222222      -0.33333333       0.33333333 </v>
   <v>      -0.33333333      -0.22222222       0.33333333 </v>
   <v>       0.33333333      -0.33333333       0.22222222 </v>
   <v>       0.33333333      -0.22222222       0.33333333 </v>
   <v>       0.22222222      -0.33333333       0.33333333 </v>
   <v>       0.44444444       0.33333333       0.22222222 </v>
   <v>       0.22222222       0.44444444       0.33333333 </v>
   <v>       0.33333333       0.22222222       0.44444444 </v>
   <v>      -0.33333333       0.44444444       0.22222222 </v>
   <v>      -0.44444444       0.22222222       0.33333333 </v>
   <v>      -0.22222222       0.33333333       0.44444444 </v>
   <v>      -0.44444444      -0.33333333       0.22222222 </v>
   <v>      -0.22222222      -0.44444444       0.33333333 </v>
   <v>      -0.33333333      -0.22222222       0.44444444 </v>
   <v>       0.33333333      -0.44444444       0.22222222 </v>
   <v>       0.44444444      -0.22222222       0.33333333 </v>
   <v>       0.22222222      -0.33333333       0.44444444 </v>
   <v>       0.22222222      -0.44444444      -0.33333333 </v>
   <v>       0.33333333      -0.22222222      -0.44444444 </v>
   <v>       0.44444444      -0.33333333      -0.22222222 </v>
   <v>       0.22222222       0.33333333      -0.44444444 </v>
   <v>       0.33333333       0.44444444      -0.22222222 </v>
   <v>       0.44444444       0.22222222      -0.33333333 </v>
   <v>      -0.33333333       0.22222222      -0.44444444 </v>
   <v>      -0.44444444       0.33333333      -0.22222222 </v>
   <v>      -0.22222222       0.44444444      -0.33333333 </v>
   <v>      -0.44444444      -0.22222222      -0.33333333 </v>
   <v>      -0.33333333      -0.44444444      -0.22222222 </v>
   <v>      -0.22222222      -0.33333333      -0.44444444 </v>
   <v>       0.44444444       0.44444444       0.22222222 </v>
   <v>       0.22222222       0.44444444       0.44444444 </v>
   <v>       0.44444444       0.22222222       0.44444444 </v>
   <v>      -0.44444444       0.44444444       0.22222222 </v>
   <v>      -0.44444444       0.22222222       0.44444444 </v>
   <v>      -0.22222222       0.44444444       0.44444444 </v>
   <v>      -0.44444444      -0.44444444       0.22222222 </v>
   <v>      -0.22222222      -0.44444444       0.44444444 </v>
   <v>      -0.44444444      -0.22222222       0.44444444 </v>
   <v>       0.44444444      -0.44444444       0.22222222 </v>
   <v>       0.44444444      -0.22222222       0.44444444 </v>
   <v>       0.22222222      -0.44444444       0.44444444 </v>
   <v>       0.33333333       0.33333333       0.33333333 </v>
   <v>      -0.33333333       0.33333333       0.33333333 </v>
   <v>      -0.33333333      -0.33333333       0.33333333 </v>
   <v>       0.33333333      -0.33333333       0.33333333 </v>
   <v>       0.44444444       0.33333333       0.33333333 </v>
   <v>       0.33333333       0.44444444       0.33333333 </v>
   <v>       0.33333333       0.33333333       0.44444444 </v>
   <v>      -0.33333333       0.44444444       0.33333333 </v>
   <v>      -0.44444444       0.33333333       0.33333333 </v>
   <v>      -0.33333333       0.33333333       0.44444444 </v>
   <v>      -0.44444444      -0.33333333       0.33333333 </v>
   <v>      -0.33333333      -0.44444444       0.33333333 </v>
   <v>      -0.33333333      -0.33333333       0.44444444 </v>
   <v>       0.33333333      -0.44444444       0.33333333 </v>
   <v>       0.44444444      -0.33333333       0.33333333 </v>
   <v>       0.33333333      -0.33333333       0.44444444 </v>
   <v>       0.44444444       0.44444444       0.33333333 </v>
   <v>       0.33333333       0.44444444       0.44444444 </v>
   <v>       0.44444444       0.33333333       0.44444444 </v>
   <v>      -0.44444444       0.44444444       0.33333333 </v>
   <v>      -0.44444444       0.33333333       0.44444444 </v>
   <v>      -0.33333333       0.44444444       0.44444444 </v>
   <v>      -0.44444444      -0.44444444       0.33333333 </v>
   <v>      -0.33333333      -0.44444444       0.44444444 </v>
   <v>      -0.44444444      -0.33333333       0.44444444 </v>
   <v>       0.44444444      -0.44444444       0.33333333 </v>
   <v>       0.44444444      -0.33333333       0.44444444 </v>
   <v>       0.33333333      -0.44444444       0.44444444 </v>
   <v>       0.44444444       0.44444444       0.44444444 </v>
   <v>      -0.44444444       0.44444444       0.44444444 </v>
   <v>      -0.44444444      -0.44444444       0.44444444 </v>
   <v>       0.44444444      -0.44444444       0.44444444 </v>
  </varray>
  <varray name="weights" >
   <v>       0.00137174 </v>
   <v>       0.00274348 </v>
   <v>       0.00274348 </v>
   <v>       0.00274348 </v>
   <v>       0.00274348 </v>
   <v>       0.00274348 </v>
   <v>       0.00274348 </v>
   <v>       0.00274348 </v>
   <v>       0.00274348 </v>
   <v>       0.00274348 </v>
   <v>       0.00274348 </v>
   <v>       0.00274348 </v>
   <v>       0.00274348 </v>
   <v>       0.00274348 </v>
   <v>       0.00274348 </v>
   <v>       0.00274348 </v>
   <v>       0.00274348 </v>
   <v>       0.00274348 </v>
   <v>       0.00274348 </v>
   <v>       0.00274348 </v>
   <v>       0.00274348 </v>
   <v>       0.00274348 </v>
   <v>       0.00274348 </v>
   <v>       0.00274348 </v>
   <v>       0.00274348 </v>
   <v>       0.00274348 </v>
   <v>       0.00274348 </v>
   <v>       0.00274348 </v>
   <v>       0.00274348 </v>
   <v>       0.00274348 </v>
   <v>       0.00274348 </v>
   <v>       0.00274348 </v>
   <v>       0.00274348 </v>
   <v>       0.00274348 </v>
   <v>       0.00274348 </v>
   <v>       0.00274348 </v>
   <v>       0.00274348 </v>
   <v>       0.00274348 </v>
   <v>       0.00274348 </v>
   <v>       0.00274348 </v>
   <v>       0.00274348 </v>
   <v>       0.00274348 </v>
   <v>       0.00274348 </v>
   <v>       0.00274348 </v>
   <v>       0.00274348 </v>
   <v>       0.00274348 </v>
   <v>       0.00274348 </v>
   <v>       0.00274348 </v>
   <v>       0.00274348 </v>
   <v>       0.00274348 </v>
   <v>       0.00274348 </v>
   <v>       0.00274348 </v>
   <v>       0.00274348 </v>
   <v>       0.00274348 </v>
   <v>       0.00274348 </v>
   <v>       0.00274348 </v>
   <v>       0.00274348 </v>
   <v>       0.00274348 </v>
   <v>       0.00274348 </v>
   <v>       0.00274348 </v>
   <v>       0.00274348 </v>
   <v>       0.00274348 </v>
   <v>       0.00274348 </v>
   <v>       0.00274348 </v>
   <v>       0.00274348 </v>
   <v>       0.00274348 </v>
   <v>       0.00274348 </v>
   <v>       0.00274348 </v>
   <v>       0.00274348 </v>
   <v>       0.00274348 </v>
   <v>       0.00274348 </v>
   <v>       0.00274348 </v>
   <v>       0.00274348 </v>
   <v>       0.00274348 </v>
   <v>       0.00274348 </v>
   <v>       0.00274348 </v>
   <v>       0.00274348 </v>
   <v>       0.00274348 </v>
   <v>       0.00274348 </v>
   <v>       0.00274348 </v>
   <v>       0.00274348 </v>
   <v>       0.00274348 </v>
   <v>       0.00274348 </v>
   <v>       0.00274348 </v>
   <v>       0.00274348 </v>
   <v>       0.00274348 </v>
   <v>       0.00274348 </v>
   <v>       0.00274348 </v>
   <v>       0.00274348 </v>
   <v>       0.00274348 </v>
   <v>       0.00274348 </v>
   <v>       0.00274348 </v>
   <v>       0.00274348 </v>
   <v>       0.00274348 </v>
   <v>       0.00274348 </v>
   <v>       0.00274348 </v>
   <v>       0.00274348 </v>
   <v>       0.00274348 </v>
   <v>       0.00274348 </v>
   <v>       0.00274348 </v>
   <v>       0.00274348 </v>
   <v>       0.00274348 </v>
   <v>       0.00274348 </v>
   <v>       0.00274348 </v>
   <v>       0.00274348 </v>
   <v>       0.00274348 </v>
   <v>       0.00274348 </v>
   <v>       0.00274348 </v>
   <v>       0.00274348 </v>
   <v>       0.00274348 </v>
   <v>       0.00274348 </v>
   <v>       0.00274348 </v>
   <v>       0.00274348 </v>
   <v>       0.00274348 </v>
   <v>       0.00274348 </v>
   <v>       0.00274348 </v>
   <v>       0.00274348 </v>
   <v>       0.00274348 </v>
   <v>       0.00274348 </v>
   <v>       0.00274348 </v>
   <v>       0.00274348 </v>
   <v>       0.00274348 </v>
   <v>       0.00274348 </v>
   <v>       0.00274348 </v>
   <v>       0.00274348 </v>
   <v>       0.00274348 </v>
   <v>       0.00274348 </v>
   <v>       0.00274348 </v>
   <v>       0.00274348 </v>
   <v>       0.00274348 </v>
   <v>       0.00274348 </v>
   <v>       0.00274348 </v>
   <v>       0.00274348 </v>
   <v>       0.00274348 </v>
   <v>       0.00274348 </v>
   <v>       0.00274348 </v>
   <v>       0.00274348 </v>
   <v>       0.00274348 </v>
   <v>       0.00274348 </v>
   <v>       0.00274348 </v>
   <v>       0.00274348 </v>
   <v>       0.00274348 </v>
   <v>       0.00274348 </v>
   <v>       0.00274348 </v>
   <v>       0.00274348 </v>
   <v>       0.00274348 </v>
   <v>       0.00274348 </v>
   <v>       0.00274348 </v>
   <v>       0.00274348 </v>
   <v>       0.00274348 </v>
   <v>       0.00274348 </v>
   <v>       0.00274348 </v>
   <v>       0.00274348 </v>
   <v>       0.00274348 </v>
   <v>       0.00274348 </v>
   <v>       0.00274348 </v>
   <v>       0.00274348 </v>
   <v>       0.00274348 </v>
   <v>       0.00274348 </v>
   <v>       0.00274348 </v>
   <v>       0.00274348 </v>
   <v>       0.00274348 </v>
   <v>       0.00274348 </v>
   <v>       0.00274348 </v>
   <v>       0.00274348 </v>
   <v>       0.00274348 </v>
   <v>       0.00274348 </v>
   <v>       0.00274348 </v>
   <v>       0.00274348 </v>
   <v>       0.00274348 </v>
   <v>       0.00274348 </v>
   <v>       0.00274348 </v>
   <v>       0.00274348 </v>
   <v>       0.00274348 </v>
   <v>       0.00274348 </v>
   <v>       0.00274348 </v>
   <v>       0.00274348 </v>
   <v>       0.00274348 </v>
   <v>       0.00274348 </v>
   <v>       0.00274348 </v>
   <v>       0.00274348 </v>
   <v>       0.00274348 </v>
   <v>       0.00274348 </v>
   <v>       0.00274348 </v>
   <v>       0.00274348 </v>
   <v>       0.00274348 </v>
   <v>       0.00274348 </v>
   <v>       0.00274348 </v>
   <v>       0.00274348 </v>
   <v>       0.00274348 </v>
   <v>       0.00274348 </v>
   <v>       0.00274348 </v>
   <v>       0.00274348 </v>
   <v>       0.00274348 </v>
   <v>       0.00274348 </v>
   <v>       0.00274348 </v>
   <v>       0.00274348 </v>
   <v>       0.00274348 </v>
   <v>       0.00274348 </v>
   <v>       0.00274348 </v>
   <v>       0.00274348 </v>
   <v>       0.00274348 </v>
   <v>       0.00274348 </v>
   <v>       0.00274348 </v>
   <v>       0.00274348 </v>
   <v>       0.00274348 </v>
   <v>       0.00274348 </v>
   <v>       0.00274348 </v>
   <v>       0.00274348 </v>
   <v>       0.00274348 </v>
   <v>       0.00274348 </v>
   <v>       0.00274348 </v>
   <v>       0.00274348 </v>
   <v>       0.00274348 </v>
   <v>       0.00274348 </v>
   <v>       0.00274348 </v>
   <v>       0.00274348 </v>
   <v>       0.00274348 </v>
   <v>       0.00274348 </v>
   <v>       0.00274348 </v>
   <v>       0.00274348 </v>
   <v>       0.00274348 </v>
   <v>       0.00274348 </v>
   <v>       0.00274348 </v>
   <v>       0.00274348 </v>
   <v>       0.00274348 </v>
   <v>       0.00274348 </v>
   <v>       0.00274348 </v>
   <v>       0.00274348 </v>
   <v>       0.00274348 </v>
   <v>       0.00274348 </v>
   <v>       0.00274348 </v>
   <v>       0.00274348 </v>
   <v>       0.00274348 </v>
   <v>       0.00274348 </v>
   <v>       0.00274348 </v>
   <v>       0.00274348 </v>
   <v>       0.00274348 </v>
   <v>       0.00274348 </v>
   <v>       0.00274348 </v>
   <v>       0.00274348 </v>
   <v>       0.00274348 </v>
   <v>       0.00274348 </v>
   <v>       0.00274348 </v>
   <v>       0.00274348 </v>
   <v>       0.00274348 </v>
   <v>       0.00274348 </v>
   <v>       0.00274348 </v>
   <v>       0.00274348 </v>
   <v>       0.00274348 </v>
   <v>       0.00274348 </v>
   <v>       0.00274348 </v>
   <v>       0.00274348 </v>
   <v>       0.00274348 </v>
   <v>       0.00274348 </v>
   <v>       0.00274348 </v>
   <v>       0.00274348 </v>
   <v>       0.00274348 </v>
   <v>       0.00274348 </v>
   <v>       0.00274348 </v>
   <v>       0.00274348 </v>
   <v>       0.00274348 </v>
   <v>       0.00274348 </v>
   <v>       0.00274348 </v>
   <v>       0.00274348 </v>
   <v>       0.00274348 </v>
   <v>       0.00274348 </v>
   <v>       0.00274348 </v>
   <v>       0.00274348 </v>
   <v>       0.00274348 </v>
   <v>       0.00274348 </v>
   <v>       0.00274348 </v>
   <v>       0.00274348 </v>
   <v>       0.00274348 </v>
   <v>       0.00274348 </v>
   <v>       0.00274348 </v>
   <v>       0.00274348 </v>
   <v>       0.00274348 </v>
   <v>       0.00274348 </v>
   <v>       0.00274348 </v>
   <v>       0.00274348 </v>
   <v>       0.00274348 </v>
   <v>       0.00274348 </v>
   <v>       0.00274348 </v>
   <v>       0.00274348 </v>
   <v>       0.00274348 </v>
   <v>       0.00274348 </v>
   <v>       0.00274348 </v>
   <v>       0.00274348 </v>
   <v>       0.00274348 </v>
   <v>       0.00274348 </v>
   <v>       0.00274348 </v>
   <v>       0.00274348 </v>
   <v>       0.00274348 </v>
   <v>       0.00274348 </v>
   <v>       0.00274348 </v>
   <v>       0.00274348 </v>
   <v>       0.00274348 </v>
   <v>       0.00274348 </v>
   <v>       0.00274348 </v>
   <v>       0.00274348 </v>
   <v>       0.00274348 </v>
   <v>       0.00274348 </v>
   <v>       0.00274348 </v>
   <v>       0.00274348 </v>
   <v>       0.00274348 </v>
   <v>       0.00274348 </v>
   <v>       0.00274348 </v>
   <v>       0.00274348 </v>
   <v>       0.00274348 </v>
   <v>       0.00274348 </v>
   <v>       0.00274348 </v>
   <v>       0.00274348 </v>
   <v>       0.00274348 </v>
   <v>       0.00274348 </v>
   <v>       0.00274348 </v>
   <v>       0.00274348 </v>
   <v>       0.00274348 </v>
   <v>       0.00274348 </v>
   <v>       0.00274348 </v>
   <v>       0.00274348 </v>
   <v>       0.00274348 </v>
   <v>       0.00274348 </v>
   <v>       0.00274348 </v>
   <v>       0.00274348 </v>
   <v>       0.00274348 </v>
   <v>       0.00274348 </v>
   <v>       0.00274348 </v>
   <v>       0.00274348 </v>
   <v>       0.00274348 </v>
   <v>       0.00274348 </v>
   <v>       0.00274348 </v>
   <v>       0.00274348 </v>
   <v>       0.00274348 </v>
   <v>       0.00274348 </v>
   <v>       0.00274348 </v>
   <v>       0.00274348 </v>
   <v>       0.00274348 </v>
   <v>       0.00274348 </v>
   <v>       0.00274348 </v>
   <v>       0.00274348 </v>
   <v>       0.00274348 </v>
   <v>       0.00274348 </v>
   <v>       0.00274348 </v>
   <v>       0.00274348 </v>
   <v>       0.00274348 </v>
   <v>       0.00274348 </v>
   <v>       0.00274348 </v>
   <v>       0.00274348 </v>
   <v>       0.00274348 </v>
   <v>       0.00274348 </v>
   <v>       0.00274348 </v>
   <v>       0.00274348 </v>
   <v>       0.00274348 </v>
   <v>       0.00274348 </v>
   <v>       0.00274348 </v>
   <v>       0.00274348 </v>
   <v>       0.00274348 </v>
   <v>       0.00274348 </v>
   <v>       0.00274348 </v>
   <v>       0.00274348 </v>
   <v>       0.00274348 </v>
   <v>       0.00274348 </v>
   <v>       0.00274348 </v>
   <v>       0.00274348 </v>
  </varray>
 </kpoints>
 <parameters>
  <separator name="general" >
   <i type="string" name="SYSTEM">default</i>
   <i type="logical" name="LCOMPAT"> F  </i>
  </separator>
  <separator name="electronic" >
   <i type="string" name="PREC">accura</i>
   <i name="ENMAX">    300.00000000</i>
   <i name="ENAUG">    644.87300000</i>
   <i name="EDIFF">      0.00000100</i>
   <i type="int" name="IALGO">    38</i>
   <i type="int" name="IWAVPR">    10</i>
   <i type="int" name="NBANDS">    24</i>
   <i type="int" name="NBANDSLOW">    -1</i>
   <i type="int" name="NBANDSHIGH">    -1</i>
   <i name="NELECT">     32.00000000</i>
   <i type="int" name="TURBO">     0</i>
   <i type="int" name="IRESTART">     0</i>
   <i type="int" name="NREBOOT">     0</i>
   <i type="int" name="NMIN">     0</i>
   <i name="EREF">      0.00000000</i>
   <separator name="electronic smearing" >
    <i type="int" name="ISMEAR">     0</i>
    <i name="SIGMA">      0.01000000</i>
    <i name="KSPACING">      0.50000000</i>
    <i type="logical" name="KGAMMA"> T  </i>
    <i type="logical" name="KBLOWUP"> T  </i>
   </separator>
   <separator name="electronic projectors" >
    <i type="logical" name="LREAL"> F  </i>
    <v name="ROPT">      0.00000000</v>
    <i type="int" name="LMAXPAW">  -100</i>
    <i type="int" name="LMAXMIX">     2</i>
    <i type="logical" name="NLSPLINE"> F  </i>
   </separator>
   <separator name="electronic startup" >
    <i type="int" name="ISTART">     0</i>
    <i type="int" name="ICHARG">     2</i>
    <i type="int" name="INIWAV">     1</i>
   </separator>
   <separator name="electronic spin" >
    <i type="int" name="ISPIN">     1</i>
    <i type="logical" name="LNONCOLLINEAR"> F  </i>
    <v name="MAGMOM">      1.00000000      1.00000000      1.00000000      1.00000000      1.00000000      1.00000000      1.00000000      1.00000000</v>
    <i name="NUPDOWN">     -1.00000000</i>
    <i type="logical" name="LSORBIT"> F  </i>
    <v name="SAXIS">      0.00000000      0.00000000      1.00000000</v>
    <i type="logical" name="LSPIRAL"> F  </i>
    <v name="QSPIRAL">      0.00000000      0.00000000      0.00000000</v>
    <i type="logical" name="LZEROZ"> F  </i>
   </separator>
   <separator name="electronic exchange-correlation" >
    <i type="logical" name="LASPH"> F  </i>
    <i type="logical" name="LMETAGGA"> F  </i>
   </separator>
   <separator name="electronic convergence" >
    <i type="int" name="NELM">    60</i>
    <i type="int" name="NELMDL">    -5</i>
    <i type="int" name="NELMIN">     2</i>
    <i name="ENINI">    300.00000000</i>
    <separator name="electronic convergence detail" >
     <i type="logical" name="LDIAG"> T  </i>
     <i type="logical" name="LSUBROT"> F  </i>
     <i name="WEIMIN">      0.00000000</i>
     <i name="EBREAK">      0.00000001</i>
     <i name="DEPER">      0.30000000</i>
     <i type="int" name="NRMM">     4</i>
     <i name="TIME">      0.40000000</i>
    </separator>
   </separator>
   <separator name="electronic mixer" >
    <i name="AMIX">      0.40000000</i>
    <i name="BMIX">      1.00000000</i>
    <i name="AMIN">      0.10000000</i>
    <i name="AMIX_MAG">      1.60000000</i>
    <i name="BMIX_MAG">      1.00000000</i>
    <separator name="electronic mixer details" >
     <i type="int" name="IMIX">     4</i>
     <i type="logical" name="MIXFIRST"> F  </i>
     <i type="int" name="MAXMIX">   -45</i>
     <i name="WC">    100.00000000</i>
     <i type="int" name="INIMIX">     1</i>
     <i type="int" name="MIXPRE">     1</i>
     <i type="int" name="MREMOVE">     5</i>
    </separator>
   </separator>
   <separator name="electronic dipolcorrection" >
    <i type="logical" name="LDIPOL"> F  </i>
    <i type="logical" name="LMONO"> F  </i>
    <i type="int" name="IDIPOL">     0</i>
    <i name="EPSILON">      1.00000000</i>
    <v name="DIPOL">   -100.00000000   -100.00000000   -100.00000000</v>
    <i name="EFIELD">      0.00000000</i>
   </separator>
  </separator>
  <separator name="grids" >
   <i type="int" name="NGX">    20</i>
   <i type="int" name="NGY">    20</i>
   <i type="int" name="NGZ">    20</i>
   <i type="int" name="NGXF">    40</i>
   <i type="int" name="NGYF">    40</i>
   <i type="int" name="NGZF">    40</i>
   <i type="logical" name="ADDGRID"> T  </i>
  </separator>
  <separator name="ionic" >
   <i type="int" name="NSW">     0</i>
   <i type="int" name="IBRION">    -1</i>
   <i type="int" name="MDALGO">     0</i>
   <i type="int" name="ISIF">     2</i>
   <i name="PSTRESS">      0.00000000</i>
   <i name="EDIFFG">      0.00001000</i>
   <i type="int" name="NFREE">     0</i>
   <i name="POTIM">      0.50000000</i>
   <i name="SMASS">     -3.00000000</i>
   <i name="SCALEE">      1.00000000</i>
  </separator>
  <separator name="ionic md" >
   <i name="TEBEG">      0.00010000</i>
   <i name="TEEND">      0.00010000</i>
   <i type="int" name="NBLOCK">     1</i>
   <i type="int" name="KBLOCK">     1</i>
   <i type="int" name="NPACO">   256</i>
   <i name="APACO">     10.00000000</i>
  </separator>
  <separator name="symmetry" >
   <i type="int" name="ISYM">     0</i>
   <i name="SYMPREC">      0.00001000</i>
  </separator>
  <separator name="dos" >
   <i type="int" name="LORBIT">     0</i>
   <v name="RWIGS">     -1.00000000</v>
   <i type="int" name="NEDOS">   301</i>
   <i name="EMIN">     10.00000000</i>
   <i name="EMAX">    -10.00000000</i>
   <i name="EFERMI">      0.00000000</i>
  </separator>
  <separator name="writing" >
   <i type="int" name="NWRITE">     2</i>
   <i type="logical" name="LWAVE"> F  </i>
   <i type="logical" name="LDOWNSAMPLE"> F  </i>
   <i type="logical" name="LCHARG"> F  </i>
   <i type="logical" name="LPARD"> F  </i>
   <i type="logical" name="LVTOT"> F  </i>
   <i type="logical" name="LVHAR"> F  </i>
   <i type="logical" name="LELF"> F  </i>
   <i type="logical" name="LOPTICS"> F  </i>
   <v name="STM">      0.00000000      0.00000000      0.00000000      0.00000000      0.00000000      0.00000000      0.00000000</v>
  </separator>
  <separator name="performance" >
   <i type="int" name="NPAR">    12</i>
   <i type="int" name="NSIM">     4</i>
   <i type="int" name="NBLK">    -1</i>
   <i type="logical" name="LPLANE"> T  </i>
   <i type="logical" name="LSCALAPACK"> T  </i>
   <i type="logical" name="LSCAAWARE"> F  </i>
   <i type="logical" name="LSCALU"> F  </i>
   <i type="logical" name="LASYNC"> F  </i>
   <i type="logical" name="LORBITALREAL"> F  </i>
  </separator>
  <separator name="miscellaneous" >
   <i type="int" name="IDIOT">     3</i>
   <i type="int" name="PHON_NSTRUCT">    -1</i>
   <i type="logical" name="LMUSIC"> F  </i>
   <v name="POMASS">     12.01100000</v>
   <v name="DARWINR">      0.00000000</v>
   <v name="DARWINV">      1.00000000</v>
   <i type="logical" name="LCORR"> T  </i>
  </separator>
  <i type="logical" name="GGA_COMPAT"> T  </i>
  <i type="logical" name="LBERRY"> F  </i>
  <i type="int" name="ICORELEVEL">     0</i>
  <i type="logical" name="LDAU"> F  </i>
  <i type="int" name="I_CONSTRAINED_M">     0</i>
  <separator name="electronic exchange-correlation" >
   <i type="string" name="GGA">--</i>
   <i type="int" name="VOSKOWN">     0</i>
   <i type="logical" name="LHFCALC"> F  </i>
   <i type="string" name="PRECFOCK"></i>
   <i type="logical" name="LSYMGRAD"> F  </i>
   <i type="logical" name="LHFONE"> F  </i>
   <i type="logical" name="LRHFCALC"> F  </i>
   <i type="logical" name="LTHOMAS"> F  </i>
   <i type="logical" name="LMODELHF"> F  </i>
   <i type="logical" name="LFOCKACE"> F  </i>
   <i name="ENCUT4O">     -1.00000000</i>
   <i type="int" name="EXXOEP">     0</i>
   <i type="int" name="FOURORBIT">     0</i>
   <i name="AEXX">      0.00000000</i>
   <i name="HFALPHA">      0.00000000</i>
   <i name="MCALPHA">      0.00000000</i>
   <i name="ALDAX">      1.00000000</i>
   <i name="AGGAX">      1.00000000</i>
   <i name="ALDAC">      1.00000000</i>
   <i name="AGGAC">      1.00000000</i>
   <i type="int" name="NKREDX">     1</i>
   <i type="int" name="NKREDY">     1</i>
   <i type="int" name="NKREDZ">     1</i>
   <i type="logical" name="SHIFTRED"> F  </i>
   <i type="logical" name="ODDONLY"> F  </i>
   <i type="logical" name="EVENONLY"> F  </i>
   <i type="int" name="LMAXFOCK">     0</i>
   <i type="int" name="NMAXFOCKAE">     0</i>
   <i type="logical" name="LFOCKAEDFT"> F  </i>
   <i name="HFSCREEN">      0.00000000</i>
   <i name="HFSCREENC">      0.00000000</i>
   <i type="int" name="NBANDSGWLOW">     0</i>
  </separator>
  <separator name="vdW DFT" >
   <i type="logical" name="LUSE_VDW"> F  </i>
   <i type="int" name="IVDW_NL">     1</i>
   <i type="logical" name="LSPIN_VDW"> F  </i>
   <i name="Zab_VDW">     -0.84910000</i>
   <i name="PARAM1">      0.12340000</i>
   <i name="PARAM2">      1.00000000</i>
   <i name="PARAM3">      0.00000000</i>
  </separator>
  <separator name="model GW" >
   <i type="int" name="MODEL_GW">     0</i>
   <i name="MODEL_EPS0">      3.42281145</i>
   <i name="MODEL_ALPHA">      1.00000000</i>
  </separator>
  <separator name="linear response parameters" >
   <i type="logical" name="LEPSILON"> F  </i>
   <i type="logical" name="LRPA"> F  </i>
   <i type="logical" name="LNABLA"> F  </i>
   <i type="logical" name="LVEL"> F  </i>
   <i type="int" name="KINTER">     0</i>
   <i name="CSHIFT">      0.10000000</i>
   <i name="OMEGAMAX">     -1.00000000</i>
   <i name="DEG_THRESHOLD">      0.00200000</i>
   <i name="RTIME">     -0.10000000</i>
   <i name="WPLASMAI">      0.00000000</i>
   <v name="DFIELD">      0.00000000      0.00000000      0.00000000</v>
   <v name="WPLASMA">      0.00000000      0.00000000      0.00000000      0.00000000      0.00000000      0.00000000      0.00000000      0.00000000      0.00000000</v>
  </separator>
  <separator name="orbital magnetization" >
   <i type="logical" name="NUCIND"> F  </i>
   <v name="MAGPOS">      0.00000000      0.00000000      0.00000000</v>
   <i type="logical" name="LNICSALL"> T  </i>
   <i type="logical" name="ORBITALMAG"> F  </i>
   <i type="logical" name="LMAGBLOCH"> F  </i>
   <i type="logical" name="LCHIMAG"> F  </i>
   <i type="logical" name="LGAUGE"> T  </i>
   <i type="int" name="MAGATOM">     0</i>
   <v name="MAGDIPOL">      0.00000000      0.00000000      0.00000000</v>
   <v name="AVECCONST">      0.00000000      0.00000000      0.00000000</v>
  </separator>
  <separator name="response functions" >
   <i type="logical" name="LALL_IN_ONE"> F  </i>
   <i type="int" name="IALL_IN_ONE">    -1</i>
   <i type="int" name="NBANDS_WAVE">    -1</i>
   <i type="logical" name="LFINITE_TEMPERATURE"> F  </i>
   <i type="logical" name="LADDER"> F  </i>
   <i type="logical" name="LRPAFORCE"> F  </i>
   <i type="logical" name="LFXC"> F  </i>
   <i type="logical" name="LHARTREE"> T  </i>
   <i type="int" name="IBSE">     0</i>
   <v type="int" name="KPOINT">    -1     0     0     0</v>
   <i type="logical" name="LTCTC"> F  </i>
   <i type="logical" name="LTCTE"> F  </i>
   <i type="logical" name="LTETE"> F  </i>
   <i type="logical" name="LTRIPLET"> F  </i>
   <i type="logical" name="LFXCEPS"> F  </i>
   <i type="logical" name="LFXHEG"> F  </i>
   <i type="int" name="NATURALO">     2</i>
   <i type="logical" name="LHOLEGF"> F  </i>
   <i type="logical" name="L2ORDER"> F  </i>
   <i type="logical" name="LDMP1"> F  </i>
   <i type="logical" name="LMP2LT"> F  </i>
   <i type="logical" name="LSMP2LT"> F  </i>
   <i type="logical" name="LGWLF"> F  </i>
   <i name="ENCUTGW">     -1.60000002</i>
   <i name="ENCUTGWSOFT">     -1.60000002</i>
   <i name="ENCUTLF">     -1.00000000</i>
   <i type="logical" name="LESF_SPLINES"> F  </i>
   <i type="int" name="LMAXMP2">    -1</i>
   <i name="SCISSOR">      0.00000000</i>
   <i type="int" name="NOMEGA">     0</i>
   <i type="int" name="NOMEGAR">     0</i>
   <i type="int" name="NBANDSGW">    -1</i>
   <i type="int" name="NBANDSO">    -1</i>
   <i type="int" name="NBANDSV">    -1</i>
   <i type="int" name="NELMGW">     1</i>
   <i type="int" name="NELMHF">     1</i>
   <i type="int" name="DIM">     3</i>
   <i type="int" name="IESPILON">     4</i>
   <i type="int" name="ANTIRES">     0</i>
   <i name="OMEGAMAX">    -30.00000000</i>
   <i name="OMEGAMIN">    -30.00000000</i>
   <i name="OMEGATL">   -200.00000000</i>
   <i type="int" name="OMEGAGRID">     0</i>
   <i name="CSHIFT">     -0.10000000</i>
   <i type="logical" name="LSELFENERGY"> F  </i>
   <i type="logical" name="LSPECTRAL"> F  </i>
   <i type="logical" name="LSPECTRALGW"> F  </i>
   <i type="logical" name="LSINGLES"> F  </i>
   <i type="logical" name="LFERMIGW"> F  </i>
   <i type="logical" name="ODDONLYGW"> F  </i>
   <i type="logical" name="EVENONLYGW"> F  </i>
   <i type="int" name="NKREDLFX">     1</i>
   <i type="int" name="NKREDLFY">     1</i>
   <i type="int" name="NKREDLFZ">     1</i>
   <i type="int" name="MAXMEM">  2800</i>
   <i type="int" name="TELESCOPE">     0</i>
   <i type="int" name="NTAUPAR">    -1</i>
   <i type="int" name="NOMEGAPAR">    -1</i>
   <i name="DAMP_NEWTON">      0.80000001</i>
   <i name="LAMBDA">      1.00000000</i>
  </separator>
  <separator name="External order field" >
   <i name="OFIELD_KAPPA">      0.00000000</i>
   <v name="OFIELD_K">      0.00000000      0.00000000      0.00000000</v>
   <i name="OFIELD_Q6_NEAR">      0.00000000</i>
   <i name="OFIELD_Q6_FAR">      0.00000000</i>
   <i name="OFIELD_A">      0.00000000</i>
  </separator>
  <separator name="optional k-points parameters" >
   <i type="int" name="KPOINTS_OPT_MODE">     1</i>
   <i type="logical" name="LKPOINTS_OPT"> F  </i>
  </separator>
 </parameters>
 <atominfo>
  <atoms>       8 </atoms>
  <types>       1 </types>
  <array name="atoms" >
   <dimension dim="1">ion</dimension>
   <field type="string">element</field>
   <field type="int">atomtype</field>
   <set>
    <rc><c>C </c><c>   1</c></rc>
    <rc><c>C </c><c>   1</c></rc>
    <rc><c>C </c><c>   1</c></rc>
    <rc><c>C </c><c>   1</c></rc>
    <rc><c>C </c><c>   1</c></rc>
    <rc><c>C </c><c>   1</c></rc>
    <rc><c>C </c><c>   1</c></rc>
    <rc><c>C </c><c>   1</c></rc>
   </set>
  </array>
  <array name="atomtypes" >
   <dimension dim="1">type</dimension>
   <field type="int">atomspertype</field>
   <field type="string">element</field>
   <field>mass</field>
   <field>valence</field>
   <field type="string">pseudopotential</field>
   <set>
    <rc><c>   8</c><c>C </c><c>     12.01100000</c><c>      4.00000000</c><c>  PAW_PBE C 08Apr2002                   </c></rc>
   </set>
  </array>
 </atominfo>
 <structure name="initialpos" >
  <crystal>
   <varray name="basis" >
    <v>       3.57361068       0.00000000       0.00000000 </v>
    <v>       0.00000000       3.57361068       0.00000000 </v>
    <v>       0.00000000       0.00000000       3.57361068 </v>
   </varray>
   <i name="volume">     45.63748602 </i>
   <varray name="rec_basis" >
    <v>       0.27982903       0.00000000       0.00000000 </v>
    <v>       0.00000000       0.27982903       0.00000000 </v>
    <v>       0.00000000       0.00000000       0.27982903 </v>
   </varray>
  </crystal>
  <varray name="positions" >
   <v>       0.00279829       0.00000000       0.00000000 </v>
   <v>       0.50000000       0.50000000       0.00000000 </v>
   <v>       0.50000000       0.00000000       0.50000000 </v>
   <v>       0.00000000       0.50000000       0.50000000 </v>
   <v>       0.25000000       0.25000000       0.25000000 </v>
   <v>       0.75000000       0.75000000       0.25000000 </v>
   <v>       0.75000000       0.25000000       0.75000000 </v>
   <v>       0.25000000       0.75000000       0.75000000 </v>
  </varray>
 </structure>
 <calculation>
  <scstep>
   <time name="dav">    2.84    2.85</time>
   <time name="total">    2.87    2.87</time>
   <energy>
    <i name="alphaZ">    115.19893585 </i>
    <i name="ewald">  -1389.17580383 </i>
    <i name="hartreedc">    -70.96448188 </i>
    <i name="XCdc">    109.47658813 </i>
    <i name="pawpsdc">    868.17637104 </i>
    <i name="pawaedc">   -872.73161751 </i>
    <i name="eentropy">     -0.00002876 </i>
    <i name="bandstr">     89.13061682 </i>
    <i name="atom">   1175.19922926 </i>
    <i name="e_fr_energy">     24.30980913 </i>
    <i name="e_wo_entrp">     24.30983789 </i>
    <i name="e_0_energy">     24.30982351 </i>
   </energy>
  </scstep>
  <scstep>
   <time name="dav">    3.59    3.59</time>
   <time name="total">    3.59    3.59</time>
   <energy>
    <i name="e_fr_energy">    -73.83886278 </i>
    <i name="e_wo_entrp">    -73.83886278 </i>
    <i name="e_0_energy">    -73.83886278 </i>
   </energy>
  </scstep>
  <scstep>
   <time name="dav">    3.79    3.80</time>
   <time name="total">    3.80    3.80</time>
   <energy>
    <i name="e_fr_energy">    -75.54241038 </i>
    <i name="e_wo_entrp">    -75.54241038 </i>
    <i name="e_0_energy">    -75.54241038 </i>
   </energy>
  </scstep>
  <scstep>
   <time name="dav">    3.48    3.48</time>
   <time name="total">    3.49    3.49</time>
   <energy>
    <i name="e_fr_energy">    -75.55245206 </i>
    <i name="e_wo_entrp">    -75.55245206 </i>
    <i name="e_0_energy">    -75.55245206 </i>
   </energy>
  </scstep>
  <scstep>
   <time name="dav">    3.74    3.74</time>
   <time name="total">    3.90    3.90</time>
   <energy>
    <i name="e_fr_energy">    -75.55258286 </i>
    <i name="e_wo_entrp">    -75.55258286 </i>
    <i name="e_0_energy">    -75.55258286 </i>
   </energy>
  </scstep>
  <scstep>
   <time name="dav">    3.07    3.07</time>
   <time name="total">    3.24    3.24</time>
   <energy>
    <i name="e_fr_energy">    -73.88861157 </i>
    <i name="e_wo_entrp">    -73.88861157 </i>
    <i name="e_0_energy">    -73.88861157 </i>
   </energy>
  </scstep>
  <scstep>
   <time name="dav">    3.37    3.37</time>
   <time name="total">    3.54    3.54</time>
   <energy>
    <i name="e_fr_energy">    -73.29632469 </i>
    <i name="e_wo_entrp">    -73.29632469 </i>
    <i name="e_0_energy">    -73.29632469 </i>
   </energy>
  </scstep>
  <scstep>
   <time name="dav">    3.67    3.68</time>
   <time name="total">    3.85    3.85</time>
   <energy>
    <i name="e_fr_energy">    -73.30128231 </i>
    <i name="e_wo_entrp">    -73.30128231 </i>
    <i name="e_0_energy">    -73.30128231 </i>
   </energy>
  </scstep>
  <scstep>
   <time name="dav">    3.46    3.47</time>
   <time name="total">    3.64    3.64</time>
   <energy>
    <i name="e_fr_energy">    -73.30139771 </i>
    <i name="e_wo_entrp">    -73.30139771 </i>
    <i name="e_0_energy">    -73.30139771 </i>
   </energy>
  </scstep>
  <scstep>
   <time name="dav">    3.66    3.66</time>
   <time name="total">    3.83    3.83</time>
   <energy>
    <i name="e_fr_energy">    -73.30145715 </i>
    <i name="e_wo_entrp">    -73.30145715 </i>
    <i name="e_0_energy">    -73.30145715 </i>
   </energy>
  </scstep>
  <scstep>
   <time name="dav">    3.29    3.29</time>
   <time name="total">    3.47    3.47</time>
   <energy>
    <i name="e_fr_energy">    -73.30145824 </i>
    <i name="e_wo_entrp">    -73.30145824 </i>
    <i name="e_0_energy">    -73.30145824 </i>
   </energy>
  </scstep>
  <scstep>
   <time name="dav">    3.15    3.15</time>
   <time name="total">    3.16    3.17</time>
   <energy>
    <i name="alphaZ">    115.19893585 </i>
    <i name="ewald">  -1389.17580383 </i>
    <i name="hartreedc">   -104.90317444 </i>
    <i name="XCdc">    112.62261837 </i>
    <i name="pawpsdc">   2992.61023761 </i>
    <i name="pawaedc">  -2997.53822761 </i>
    <i name="eentropy">     -0.00000000 </i>
    <i name="bandstr">     22.68472651 </i>
    <i name="atom">   1175.19922926 </i>
    <i name="e_fr_energy">    -73.30145827 </i>
    <i name="e_wo_entrp">    -73.30145827 </i>
    <i name="e_0_energy">    -73.30145827 </i>
   </energy>
  </scstep>
  <structure>
   <crystal>
    <varray name="basis" >
     <v>       3.57361068       0.00000000       0.00000000 </v>
     <v>       0.00000000       3.57361068       0.00000000 </v>
     <v>       0.00000000       0.00000000       3.57361068 </v>
    </varray>
    <i name="volume">     45.63748602 </i>
    <varray name="rec_basis" >
     <v>       0.27982903       0.00000000       0.00000000 </v>
     <v>       0.00000000       0.27982903       0.00000000 </v>
     <v>       0.00000000       0.00000000       0.27982903 </v>
    </varray>
   </crystal>
   <varray name="positions" >
    <v>       0.00279829       0.00000000       0.00000000 </v>
    <v>       0.50000000       0.50000000       0.00000000 </v>
    <v>       0.50000000       0.00000000       0.50000000 </v>
    <v>       0.00000000       0.50000000       0.50000000 </v>
    <v>       0.25000000       0.25000000       0.25000000 </v>
    <v>       0.75000000       0.75000000       0.25000000 </v>
    <v>       0.75000000       0.25000000       0.75000000 </v>
    <v>       0.25000000       0.75000000       0.75000000 </v>
   </varray>
  </structure>
  <varray name="forces" >
   <v>      -0.47137679       0.00000006      -0.00000002 </v>
   <v>       0.06770926      -0.00000016      -0.00000014 </v>
   <v>       0.06770900      -0.00000024       0.00000002 </v>
   <v>      -0.05869640       0.00000003       0.00000007 </v>
   <v>       0.09959354       0.03588916       0.03588913 </v>
   <v>       0.09773403       0.03385895      -0.03385862 </v>
   <v>       0.09773376      -0.03385874       0.03385885 </v>
   <v>       0.09959360      -0.03588906      -0.03588929 </v>
  </varray>
  <varray name="stress" >
   <v>    -232.79662131       0.00002916       0.00008606 </v>
   <v>       0.00002931    -232.68559751       1.68795496 </v>
   <v>       0.00008605       1.68795499    -232.68559348 </v>
  </varray>
  <energy>
   <i name="e_fr_energy">    -73.30145827 </i>
   <i name="e_wo_entrp">    -73.30145827 </i>
   <i name="e_0_energy">    -73.30145827 </i>
  </energy>
  <time name="totalsc">   54.48   54.50</time>
  <eigenvalues>
   <array>
    <dimension dim="1">band</dimension>
    <dimension dim="2">kpoint</dimension>
    <dimension dim="3">spin</dimension>
    <field>eigene</field>
    <field>occ</field>
    <set>
     <set comment="spin 1">
      <set comment="kpoint 1">
       <r>  -11.7814    1.0000 </r>
       <r>   -3.1261    1.0000 </r>
       <r>   -3.1089    1.0000 </r>
       <r>   -3.0904    1.0000 </r>
       <r>   -3.0904    1.0000 </r>
       <r>   -3.0723    1.0000 </r>
       <r>   -3.0547    1.0000 </r>
       <r>    3.4017    1.0000 </r>
       <r>    3.4229    1.0000 </r>
       <r>    3.4244    1.0000 </r>
       <r>    3.4248    1.0000 </r>
       <r>    3.4259    1.0000 </r>
       <r>    3.4471    1.0000 </r>
       <r>    9.6818    1.0000 </r>
       <r>    9.7206    1.0000 </r>
       <r>    9.7591    1.0000 </r>
       <r>   14.3834    0.0000 </r>
       <r>   14.4008    0.0000 </r>
       <r>   14.4231    0.0000 </r>
       <r>   14.4232    0.0000 </r>
       <r>   14.4430    0.0000 </r>
       <r>   14.4598    0.0000 </r>
       <r>   15.2985    0.0000 </r>
       <r>   15.3334    0.0000 </r>
      </set>
      <set comment="kpoint 2">
       <r>  -11.6677    1.0000 </r>
       <r>   -4.8065    1.0000 </r>
       <r>   -3.0411    1.0000 </r>
       <r>   -3.0224    1.0000 </r>
       <r>   -3.0222    1.0000 </r>
       <r>   -3.0036    1.0000 </r>
       <r>   -1.2755    1.0000 </r>
       <r>    3.1584    1.0000 </r>
       <r>    3.1686    1.0000 </r>
       <r>    3.1690    1.0000 </r>
       <r>    3.1785    1.0000 </r>
       <r>    3.5296    1.0000 </r>
       <r>    3.5544    1.0000 </r>
       <r>    9.2379    1.0000 </r>
       <r>    9.3044    1.0000 </r>
       <r>    9.4370    1.0000 </r>
       <r>   13.9840    0.0000 </r>
       <r>   14.8460    0.0000 </r>
       <r>   14.8806    0.0000 </r>
       <r>   14.8843    0.0000 </r>
       <r>   14.9200    0.0000 </r>
       <r>   15.1054    0.0000 </r>
       <r>   15.2417    0.0000 </r>
       <r>   15.8558    0.0000 </r>
      </set>
      <set comment="kpoint 3">
       <r>  -11.6677    1.0000 </r>
       <r>   -4.8066    1.0000 </r>
       <r>   -3.0483    1.0000 </r>
       <r>   -3.0224    1.0000 </r>
       <r>   -3.0222    1.0000 </r>
       <r>   -2.9960    1.0000 </r>
       <r>   -1.2759    1.0000 </r>
       <r>    3.1513    1.0000 </r>
       <r>    3.1633    1.0000 </r>
       <r>    3.1739    1.0000 </r>
       <r>    3.1850    1.0000 </r>
       <r>    3.5422    1.0000 </r>
       <r>    3.5428    1.0000 </r>
       <r>    9.2635    1.0000 </r>
       <r>    9.2713    1.0000 </r>
       <r>    9.4445    1.0000 </r>
       <r>   13.9832    0.0000 </r>
       <r>   14.8637    0.0000 </r>
       <r>   14.8726    0.0000 </r>
       <r>   14.8911    0.0000 </r>
       <r>   14.9012    0.0000 </r>
       <r>   15.1100    0.0000 </r>
       <r>   15.2376    0.0000 </r>
       <r>   15.8863    0.0000 </r>
      </set>
      <set comment="kpoint 4">
       <r>  -11.6677    1.0000 </r>
       <r>   -4.8066    1.0000 </r>
       <r>   -3.0483    1.0000 </r>
       <r>   -3.0224    1.0000 </r>
       <r>   -3.0222    1.0000 </r>
       <r>   -2.9960    1.0000 </r>
       <r>   -1.2759    1.0000 </r>
       <r>    3.1513    1.0000 </r>
       <r>    3.1633    1.0000 </r>
       <r>    3.1739    1.0000 </r>
       <r>    3.1850    1.0000 </r>
       <r>    3.5422    1.0000 </r>
       <r>    3.5428    1.0000 </r>
       <r>    9.2635    1.0000 </r>
       <r>    9.2713    1.0000 </r>
       <r>    9.4445    1.0000 </r>
       <r>   13.9832    0.0000 </r>
       <r>   14.8637    0.0000 </r>
       <r>   14.8726    0.0000 </r>
       <r>   14.8911    0.0000 </r>
       <r>   14.9012    0.0000 </r>
       <r>   15.1100    0.0000 </r>
       <r>   15.2376    0.0000 </r>
       <r>   15.8870    0.0000 </r>
      </set>
      <set comment="kpoint 5">
       <r>  -11.3281    1.0000 </r>
       <r>   -6.3781    1.0000 </r>
       <r>   -2.8451    1.0000 </r>
       <r>   -2.8249    1.0000 </r>
       <r>   -2.8247    1.0000 </r>
       <r>   -2.8047    1.0000 </r>
       <r>    0.6069    1.0000 </r>
       <r>    2.5622    1.0000 </r>
       <r>    2.5681    1.0000 </r>
       <r>    2.5684    1.0000 </r>
       <r>    2.5741    1.0000 </r>
       <r>    3.8582    1.0000 </r>
       <r>    3.8839    1.0000 </r>
       <r>    8.2409    1.0000 </r>
       <r>    8.2921    1.0000 </r>
       <r>    8.5897    1.0000 </r>
       <r>   13.8056    0.0000 </r>
       <r>   15.0114    0.0000 </r>
       <r>   16.0853    0.0000 </r>
       <r>   16.1139    0.0000 </r>
       <r>   16.1496    0.0000 </r>
       <r>   16.1500    0.0000 </r>
       <r>   16.1831    0.0000 </r>
       <r>   17.1902    0.0000 </r>
      </set>
      <set comment="kpoint 6">
       <r>  -11.3280    1.0000 </r>
       <r>   -6.3783    1.0000 </r>
       <r>   -2.8504    1.0000 </r>
       <r>   -2.8250    1.0000 </r>
       <r>   -2.8247    1.0000 </r>
       <r>   -2.7989    1.0000 </r>
       <r>    0.6064    1.0000 </r>
       <r>    2.5495    1.0000 </r>
       <r>    2.5613    1.0000 </r>
       <r>    2.5749    1.0000 </r>
       <r>    2.5864    1.0000 </r>
       <r>    3.8715    1.0000 </r>
       <r>    3.8717    1.0000 </r>
       <r>    8.2633    1.0000 </r>
       <r>    8.2667    1.0000 </r>
       <r>    8.5928    1.0000 </r>
       <r>   13.8053    0.0000 </r>
       <r>   15.0110    0.0000 </r>
       <r>   16.0695    0.0000 </r>
       <r>   16.1310    0.0000 </r>
       <r>   16.1403    0.0000 </r>
       <r>   16.1624    0.0000 </r>
       <r>   16.1782    0.0000 </r>
       <r>   17.2109    0.0000 </r>
      </set>
      <set comment="kpoint 7">
       <r>  -11.3280    1.0000 </r>
       <r>   -6.3783    1.0000 </r>
       <r>   -2.8504    1.0000 </r>
       <r>   -2.8250    1.0000 </r>
       <r>   -2.8247    1.0000 </r>
       <r>   -2.7989    1.0000 </r>
       <r>    0.6064    1.0000 </r>
       <r>    2.5495    1.0000 </r>
       <r>    2.5613    1.0000 </r>
       <r>    2.5749    1.0000 </r>
       <r>    2.5864    1.0000 </r>
       <r>    3.8715    1.0000 </r>
       <r>    3.8717    1.0000 </r>
       <r>    8.2633    1.0000 </r>
       <r>    8.2667    1.0000 </r>
       <r>    8.5928    1.0000 </r>
       <r>   13.8053    0.0000 </r>
       <r>   15.0110    0.0000 </r>
       <r>   16.0695    0.0000 </r>
       <r>   16.1310    0.0000 </r>
       <r>   16.1403    0.0000 </r>
       <r>   16.1624    0.0000 </r>
       <r>   16.1782    0.0000 </r>
       <r>   17.2118    0.0000 </r>
      </set>
      <set comment="kpoint 8">
       <r>  -10.7646    1.0000 </r>
       <r>   -7.7756    1.0000 </r>
       <r>   -2.5863    1.0000 </r>
       <r>   -2.5637    1.0000 </r>
       <r>   -2.5634    1.0000 </r>
       <r>   -2.5410    1.0000 </r>
       <r>    1.8869    1.0000 </r>
       <r>    1.8881    1.0000 </r>
       <r>    1.8885    1.0000 </r>
       <r>    1.8895    1.0000 </r>
       <r>    2.4921    1.0000 </r>
       <r>    4.4010    1.0000 </r>
       <r>    4.4285    1.0000 </r>
       <r>    7.1175    1.0000 </r>
       <r>    7.1580    1.0000 </r>
       <r>    7.3964    1.0000 </r>
       <r>   13.8272    0.0000 </r>
       <r>   14.6443    0.0000 </r>
       <r>   17.3865    0.0000 </r>
       <r>   17.8874    0.0000 </r>
       <r>   17.9206    0.0000 </r>
       <r>   17.9212    0.0000 </r>
       <r>   17.9523    0.0000 </r>
       <r>   18.7783    0.0000 </r>
      </set>
      <set comment="kpoint 9">
       <r>  -10.7645    1.0000 </r>
       <r>   -7.7759    1.0000 </r>
       <r>   -2.5882    1.0000 </r>
       <r>   -2.5641    1.0000 </r>
       <r>   -2.5630    1.0000 </r>
       <r>   -2.5384    1.0000 </r>
       <r>    1.8692    1.0000 </r>
       <r>    1.8814    1.0000 </r>
       <r>    1.8941    1.0000 </r>
       <r>    1.9069    1.0000 </r>
       <r>    2.4921    1.0000 </r>
       <r>    4.4154    1.0000 </r>
       <r>    4.4156    1.0000 </r>
       <r>    7.1345    1.0000 </r>
       <r>    7.1378    1.0000 </r>
       <r>    7.3995    1.0000 </r>
       <r>   13.8271    0.0000 </r>
       <r>   14.6440    0.0000 </r>
       <r>   17.3828    0.0000 </r>
       <r>   17.8925    0.0000 </r>
       <r>   17.9087    0.0000 </r>
       <r>   17.9330    0.0000 </r>
       <r>   17.9509    0.0000 </r>
       <r>   18.7888    0.0000 </r>
      </set>
      <set comment="kpoint 10">
       <r>  -10.7645    1.0000 </r>
       <r>   -7.7759    1.0000 </r>
       <r>   -2.5882    1.0000 </r>
       <r>   -2.5641    1.0000 </r>
       <r>   -2.5630    1.0000 </r>
       <r>   -2.5384    1.0000 </r>
       <r>    1.8692    1.0000 </r>
       <r>    1.8814    1.0000 </r>
       <r>    1.8941    1.0000 </r>
       <r>    1.9069    1.0000 </r>
       <r>    2.4921    1.0000 </r>
       <r>    4.4154    1.0000 </r>
       <r>    4.4156    1.0000 </r>
       <r>    7.1345    1.0000 </r>
       <r>    7.1378    1.0000 </r>
       <r>    7.3995    1.0000 </r>
       <r>   13.8271    0.0000 </r>
       <r>   14.6440    0.0000 </r>
       <r>   17.3828    0.0000 </r>
       <r>   17.8925    0.0000 </r>
       <r>   17.9087    0.0000 </r>
       <r>   17.9330    0.0000 </r>
       <r>   17.9509    0.0000 </r>
       <r>   18.7883    0.0000 </r>
      </set>
      <set comment="kpoint 11">
       <r>   -9.9802    1.0000 </r>
       <r>   -8.9802    1.0000 </r>
       <r>   -2.3785    1.0000 </r>
       <r>   -2.3535    1.0000 </r>
       <r>   -2.3532    1.0000 </r>
       <r>   -2.3282    1.0000 </r>
       <r>    1.4411    1.0000 </r>
       <r>    1.4434    1.0000 </r>
       <r>    1.4438    1.0000 </r>
       <r>    1.4458    1.0000 </r>
       <r>    4.2608    1.0000 </r>
       <r>    5.1416    1.0000 </r>
       <r>    5.1720    1.0000 </r>
       <r>    5.9294    1.0000 </r>
       <r>    6.0664    1.0000 </r>
       <r>    6.1011    1.0000 </r>
       <r>   14.0126    0.0000 </r>
       <r>   14.3202    0.0000 </r>
       <r>   18.9871    0.0000 </r>
       <r>   19.8316    0.0000 </r>
       <r>   19.8614    0.0000 </r>
       <r>   19.8633    0.0000 </r>
       <r>   19.8904    0.0000 </r>
       <r>   20.5706    0.0000 </r>
      </set>
      <set comment="kpoint 12">
       <r>   -9.9799    1.0000 </r>
       <r>   -8.9807    1.0000 </r>
       <r>   -2.3768    1.0000 </r>
       <r>   -2.3546    1.0000 </r>
       <r>   -2.3520    1.0000 </r>
       <r>   -2.3293    1.0000 </r>
       <r>    1.4256    1.0000 </r>
       <r>    1.4377    1.0000 </r>
       <r>    1.4488    1.0000 </r>
       <r>    1.4611    1.0000 </r>
       <r>    4.2599    1.0000 </r>
       <r>    5.1580    1.0000 </r>
       <r>    5.1584    1.0000 </r>
       <r>    5.9253    1.0000 </r>
       <r>    6.0831    1.0000 </r>
       <r>    6.0875    1.0000 </r>
       <r>   14.0127    0.0000 </r>
       <r>   14.3196    0.0000 </r>
       <r>   18.9842    0.0000 </r>
       <r>   19.8251    0.0000 </r>
       <r>   19.8512    0.0000 </r>
       <r>   19.8734    0.0000 </r>
       <r>   19.9007    0.0000 </r>
       <r>   20.5881    0.0000 </r>
      </set>
      <set comment="kpoint 13">
       <r>   -9.9799    1.0000 </r>
       <r>   -8.9807    1.0000 </r>
       <r>   -2.3768    1.0000 </r>
       <r>   -2.3546    1.0000 </r>
       <r>   -2.3520    1.0000 </r>
       <r>   -2.3293    1.0000 </r>
       <r>    1.4256    1.0000 </r>
       <r>    1.4377    1.0000 </r>
       <r>    1.4488    1.0000 </r>
       <r>    1.4611    1.0000 </r>
       <r>    4.2599    1.0000 </r>
       <r>    5.1580    1.0000 </r>
       <r>    5.1584    1.0000 </r>
       <r>    5.9253    1.0000 </r>
       <r>    6.0831    1.0000 </r>
       <r>    6.0875    1.0000 </r>
       <r>   14.0127    0.0000 </r>
       <r>   14.3196    0.0000 </r>
       <r>   18.9842    0.0000 </r>
       <r>   19.8251    0.0000 </r>
       <r>   19.8512    0.0000 </r>
       <r>   19.8734    0.0000 </r>
       <r>   19.9007    0.0000 </r>
       <r>   20.5871    0.0000 </r>
      </set>
      <set comment="kpoint 14">
       <r>  -11.5541    1.0000 </r>
       <r>   -4.7295    1.0000 </r>
       <r>   -4.7063    1.0000 </r>
       <r>   -3.0288    1.0000 </r>
       <r>   -2.8842    1.0000 </r>
       <r>   -1.2495    1.0000 </r>
       <r>   -1.2233    1.0000 </r>
       <r>    2.3642    1.0000 </r>
       <r>    3.2456    1.0000 </r>
       <r>    3.2487    1.0000 </r>
       <r>    3.3233    1.0000 </r>
       <r>    3.3406    1.0000 </r>
       <r>    3.5972    1.0000 </r>
       <r>    8.5377    1.0000 </r>
       <r>    8.8467    1.0000 </r>
       <r>    9.5838    1.0000 </r>
       <r>   14.4615    0.0000 </r>
       <r>   14.4845    0.0000 </r>
       <r>   14.6099    0.0000 </r>
       <r>   15.5429    0.0000 </r>
       <r>   15.5565    0.0000 </r>
       <r>   15.5793    0.0000 </r>
       <r>   15.9624    0.0000 </r>
       <r>   16.0140    0.0000 </r>
      </set>
      <set comment="kpoint 15">
       <r>  -11.5541    1.0000 </r>
       <r>   -4.7277    1.0000 </r>
       <r>   -4.7098    1.0000 </r>
       <r>   -3.0177    1.0000 </r>
       <r>   -2.8948    1.0000 </r>
       <r>   -1.2419    1.0000 </r>
       <r>   -1.2251    1.0000 </r>
       <r>    2.3514    1.0000 </r>
       <r>    3.2478    1.0000 </r>
       <r>    3.2490    1.0000 </r>
       <r>    3.3165    1.0000 </r>
       <r>    3.3401    1.0000 </r>
       <r>    3.6093    1.0000 </r>
       <r>    8.5064    1.0000 </r>
       <r>    8.8480    1.0000 </r>
       <r>    9.6204    1.0000 </r>
       <r>   14.4626    0.0000 </r>
       <r>   14.4911    0.0000 </r>
       <r>   14.6218    0.0000 </r>
       <r>   15.5053    0.0000 </r>
       <r>   15.5591    0.0000 </r>
       <r>   15.5743    0.0000 </r>
       <r>   15.9654    0.0000 </r>
       <r>   16.0329    0.0000 </r>
      </set>
      <set comment="kpoint 16">
       <r>  -11.5541    1.0000 </r>
       <r>   -4.7295    1.0000 </r>
       <r>   -4.7063    1.0000 </r>
       <r>   -3.0288    1.0000 </r>
       <r>   -2.8842    1.0000 </r>
       <r>   -1.2495    1.0000 </r>
       <r>   -1.2233    1.0000 </r>
       <r>    2.3642    1.0000 </r>
       <r>    3.2456    1.0000 </r>
       <r>    3.2487    1.0000 </r>
       <r>    3.3233    1.0000 </r>
       <r>    3.3406    1.0000 </r>
       <r>    3.5972    1.0000 </r>
       <r>    8.5377    1.0000 </r>
       <r>    8.8467    1.0000 </r>
       <r>    9.5838    1.0000 </r>
       <r>   14.4615    0.0000 </r>
       <r>   14.4845    0.0000 </r>
       <r>   14.6099    0.0000 </r>
       <r>   15.5429    0.0000 </r>
       <r>   15.5565    0.0000 </r>
       <r>   15.5793    0.0000 </r>
       <r>   15.9624    0.0000 </r>
       <r>   16.0140    0.0000 </r>
      </set>
      <set comment="kpoint 17">
       <r>  -11.5541    1.0000 </r>
       <r>   -4.7295    1.0000 </r>
       <r>   -4.7063    1.0000 </r>
       <r>   -3.0288    1.0000 </r>
       <r>   -2.8842    1.0000 </r>
       <r>   -1.2495    1.0000 </r>
       <r>   -1.2233    1.0000 </r>
       <r>    2.3642    1.0000 </r>
       <r>    3.2456    1.0000 </r>
       <r>    3.2487    1.0000 </r>
       <r>    3.3233    1.0000 </r>
       <r>    3.3406    1.0000 </r>
       <r>    3.5972    1.0000 </r>
       <r>    8.5377    1.0000 </r>
       <r>    8.8467    1.0000 </r>
       <r>    9.5838    1.0000 </r>
       <r>   14.4615    0.0000 </r>
       <r>   14.4845    0.0000 </r>
       <r>   14.6099    0.0000 </r>
       <r>   15.5429    0.0000 </r>
       <r>   15.5565    0.0000 </r>
       <r>   15.5793    0.0000 </r>
       <r>   15.9624    0.0000 </r>
       <r>   16.0140    0.0000 </r>
      </set>
      <set comment="kpoint 18">
       <r>  -11.5541    1.0000 </r>
       <r>   -4.7295    1.0000 </r>
       <r>   -4.7063    1.0000 </r>
       <r>   -3.0288    1.0000 </r>
       <r>   -2.8842    1.0000 </r>
       <r>   -1.2495    1.0000 </r>
       <r>   -1.2233    1.0000 </r>
       <r>    2.3642    1.0000 </r>
       <r>    3.2456    1.0000 </r>
       <r>    3.2487    1.0000 </r>
       <r>    3.3233    1.0000 </r>
       <r>    3.3406    1.0000 </r>
       <r>    3.5972    1.0000 </r>
       <r>    8.5377    1.0000 </r>
       <r>    8.8467    1.0000 </r>
       <r>    9.5838    1.0000 </r>
       <r>   14.4615    0.0000 </r>
       <r>   14.4845    0.0000 </r>
       <r>   14.6099    0.0000 </r>
       <r>   15.5429    0.0000 </r>
       <r>   15.5565    0.0000 </r>
       <r>   15.5793    0.0000 </r>
       <r>   15.9624    0.0000 </r>
       <r>   16.0140    0.0000 </r>
      </set>
      <set comment="kpoint 19">
       <r>  -11.5540    1.0000 </r>
       <r>   -4.7258    1.0000 </r>
       <r>   -4.7086    1.0000 </r>
       <r>   -3.0394    1.0000 </r>
       <r>   -2.8733    1.0000 </r>
       <r>   -1.2481    1.0000 </r>
       <r>   -1.2310    1.0000 </r>
       <r>    2.3761    1.0000 </r>
       <r>    3.2484    1.0000 </r>
       <r>    3.2488    1.0000 </r>
       <r>    3.3215    1.0000 </r>
       <r>    3.3463    1.0000 </r>
       <r>    3.5841    1.0000 </r>
       <r>    8.5716    1.0000 </r>
       <r>    8.8449    1.0000 </r>
       <r>    9.5452    1.0000 </r>
       <r>   14.4551    0.0000 </r>
       <r>   14.4854    0.0000 </r>
       <r>   14.5965    0.0000 </r>
       <r>   15.5354    0.0000 </r>
       <r>   15.5629    0.0000 </r>
       <r>   15.6209    0.0000 </r>
       <r>   15.9631    0.0000 </r>
       <r>   15.9934    0.0000 </r>
      </set>
      <set comment="kpoint 20">
       <r>  -11.2154    1.0000 </r>
       <r>   -6.2787    1.0000 </r>
       <r>   -4.4555    1.0000 </r>
       <r>   -2.9598    1.0000 </r>
       <r>   -2.6152    1.0000 </r>
       <r>   -1.1591    1.0000 </r>
       <r>    0.5679    1.0000 </r>
       <r>    1.4931    1.0000 </r>
       <r>    2.5681    1.0000 </r>
       <r>    2.8765    1.0000 </r>
       <r>    3.5375    1.0000 </r>
       <r>    3.5639    1.0000 </r>
       <r>    3.7450    1.0000 </r>
       <r>    7.4156    1.0000 </r>
       <r>    7.8828    1.0000 </r>
       <r>    9.0747    1.0000 </r>
       <r>   14.2992    0.0000 </r>
       <r>   15.2449    0.0000 </r>
       <r>   15.4265    0.0000 </r>
       <r>   15.7827    0.0000 </r>
       <r>   16.5073    0.0000 </r>
       <r>   16.7796    0.0000 </r>
       <r>   17.1893    0.0000 </r>
       <r>   17.2818    0.0000 </r>
      </set>
      <set comment="kpoint 21">
       <r>  -11.2154    1.0000 </r>
       <r>   -6.2792    1.0000 </r>
       <r>   -4.4573    1.0000 </r>
       <r>   -2.9483    1.0000 </r>
       <r>   -2.6263    1.0000 </r>
       <r>   -1.1523    1.0000 </r>
       <r>    0.5737    1.0000 </r>
       <r>    1.4803    1.0000 </r>
       <r>    2.5689    1.0000 </r>
       <r>    2.8697    1.0000 </r>
       <r>    3.5505    1.0000 </r>
       <r>    3.5644    1.0000 </r>
       <r>    3.7382    1.0000 </r>
       <r>    7.3873    1.0000 </r>
       <r>    7.8846    1.0000 </r>
       <r>    9.1089    1.0000 </r>
       <r>   14.3023    0.0000 </r>
       <r>   15.2616    0.0000 </r>
       <r>   15.4081    0.0000 </r>
       <r>   15.7884    0.0000 </r>
       <r>   16.5012    0.0000 </r>
       <r>   16.7768    0.0000 </r>
       <r>   17.2112    0.0000 </r>
       <r>   17.2717    0.0000 </r>
      </set>
      <set comment="kpoint 22">
       <r>  -11.2153    1.0000 </r>
       <r>   -6.2789    1.0000 </r>
       <r>   -4.4553    1.0000 </r>
       <r>   -2.9598    1.0000 </r>
       <r>   -2.6152    1.0000 </r>
       <r>   -1.1588    1.0000 </r>
       <r>    0.5674    1.0000 </r>
       <r>    1.4931    1.0000 </r>
       <r>    2.5673    1.0000 </r>
       <r>    2.8765    1.0000 </r>
       <r>    3.5345    1.0000 </r>
       <r>    3.5684    1.0000 </r>
       <r>    3.7445    1.0000 </r>
       <r>    7.4156    1.0000 </r>
       <r>    7.8826    1.0000 </r>
       <r>    9.0749    1.0000 </r>
       <r>   14.2987    0.0000 </r>
       <r>   15.2438    0.0000 </r>
       <r>   15.4288    0.0000 </r>
       <r>   15.7815    0.0000 </r>
       <r>   16.5053    0.0000 </r>
       <r>   16.7802    0.0000 </r>
       <r>   17.1960    0.0000 </r>
       <r>   17.2773    0.0000 </r>
      </set>
      <set comment="kpoint 23">
       <r>  -11.2153    1.0000 </r>
       <r>   -6.2789    1.0000 </r>
       <r>   -4.4553    1.0000 </r>
       <r>   -2.9598    1.0000 </r>
       <r>   -2.6152    1.0000 </r>
       <r>   -1.1588    1.0000 </r>
       <r>    0.5674    1.0000 </r>
       <r>    1.4931    1.0000 </r>
       <r>    2.5673    1.0000 </r>
       <r>    2.8765    1.0000 </r>
       <r>    3.5345    1.0000 </r>
       <r>    3.5684    1.0000 </r>
       <r>    3.7445    1.0000 </r>
       <r>    7.4156    1.0000 </r>
       <r>    7.8826    1.0000 </r>
       <r>    9.0749    1.0000 </r>
       <r>   14.2987    0.0000 </r>
       <r>   15.2438    0.0000 </r>
       <r>   15.4288    0.0000 </r>
       <r>   15.7815    0.0000 </r>
       <r>   16.5053    0.0000 </r>
       <r>   16.7802    0.0000 </r>
       <r>   17.1960    0.0000 </r>
       <r>   17.2773    0.0000 </r>
      </set>
      <set comment="kpoint 24">
       <r>  -11.2154    1.0000 </r>
       <r>   -6.2787    1.0000 </r>
       <r>   -4.4555    1.0000 </r>
       <r>   -2.9598    1.0000 </r>
       <r>   -2.6152    1.0000 </r>
       <r>   -1.1591    1.0000 </r>
       <r>    0.5679    1.0000 </r>
       <r>    1.4931    1.0000 </r>
[...]
       <r>   -6.0598    1.0000 </r>
       <r>   -6.0548    1.0000 </r>
       <r>   -3.5018    1.0000 </r>
       <r>   -3.4909    1.0000 </r>
       <r>   -3.4688    1.0000 </r>
       <r>   -2.8885    1.0000 </r>
       <r>    6.5376    1.0000 </r>
       <r>    6.5768    1.0000 </r>
       <r>    6.5913    1.0000 </r>
       <r>    6.7199    1.0000 </r>
       <r>    6.7265    1.0000 </r>
       <r>    6.7466    1.0000 </r>
       <r>    6.9207    1.0000 </r>
       <r>    6.9652    1.0000 </r>
       <r>   18.0207    0.0000 </r>
       <r>   18.0462    0.0000 </r>
       <r>   18.0584    0.0000 </r>
       <r>   18.1473    0.0000 </r>
       <r>   18.2208    0.0000 </r>
       <r>   18.3763    0.0000 </r>
       <r>   18.4178    0.0000 </r>
       <r>   18.4541    0.0000 </r>
      </set>
      <set comment="kpoint 363">
       <r>   -6.6777    1.0000 </r>
       <r>   -6.0868    1.0000 </r>
       <r>   -6.0598    1.0000 </r>
       <r>   -6.0548    1.0000 </r>
       <r>   -3.5018    1.0000 </r>
       <r>   -3.4909    1.0000 </r>
       <r>   -3.4688    1.0000 </r>
       <r>   -2.8885    1.0000 </r>
       <r>    6.5376    1.0000 </r>
       <r>    6.5768    1.0000 </r>
       <r>    6.5913    1.0000 </r>
       <r>    6.7199    1.0000 </r>
       <r>    6.7265    1.0000 </r>
       <r>    6.7466    1.0000 </r>
       <r>    6.9207    1.0000 </r>
       <r>    6.9652    1.0000 </r>
       <r>   18.0207    0.0000 </r>
       <r>   18.0462    0.0000 </r>
       <r>   18.0584    0.0000 </r>
       <r>   18.1473    0.0000 </r>
       <r>   18.2208    0.0000 </r>
       <r>   18.3762    0.0000 </r>
       <r>   18.4175    0.0000 </r>
       <r>   18.4563    0.0000 </r>
      </set>
      <set comment="kpoint 364">
       <r>   -6.6820    1.0000 </r>
       <r>   -6.0771    1.0000 </r>
       <r>   -6.0713    1.0000 </r>
       <r>   -6.0449    1.0000 </r>
       <r>   -3.5119    1.0000 </r>
       <r>   -3.4899    1.0000 </r>
       <r>   -3.4795    1.0000 </r>
       <r>   -2.8727    1.0000 </r>
       <r>    6.5764    1.0000 </r>
       <r>    6.5906    1.0000 </r>
       <r>    6.6176    1.0000 </r>
       <r>    6.6829    1.0000 </r>
       <r>    6.7172    1.0000 </r>
       <r>    6.7262    1.0000 </r>
       <r>    6.9178    1.0000 </r>
       <r>    6.9552    1.0000 </r>
       <r>   18.0014    0.0000 </r>
       <r>   18.0088    0.0000 </r>
       <r>   18.0459    0.0000 </r>
       <r>   18.1461    0.0000 </r>
       <r>   18.2043    0.0000 </r>
       <r>   18.3832    0.0000 </r>
       <r>   18.4559    0.0000 </r>
       <r>   18.4997    0.0000 </r>
      </set>
      <set comment="kpoint 365">
       <r>   -6.6820    1.0000 </r>
       <r>   -6.0771    1.0000 </r>
       <r>   -6.0713    1.0000 </r>
       <r>   -6.0449    1.0000 </r>
       <r>   -3.5119    1.0000 </r>
       <r>   -3.4899    1.0000 </r>
       <r>   -3.4795    1.0000 </r>
       <r>   -2.8727    1.0000 </r>
       <r>    6.5764    1.0000 </r>
       <r>    6.5906    1.0000 </r>
       <r>    6.6176    1.0000 </r>
       <r>    6.6829    1.0000 </r>
       <r>    6.7172    1.0000 </r>
       <r>    6.7262    1.0000 </r>
       <r>    6.9178    1.0000 </r>
       <r>    6.9552    1.0000 </r>
       <r>   18.0014    0.0000 </r>
       <r>   18.0088    0.0000 </r>
       <r>   18.0459    0.0000 </r>
       <r>   18.1461    0.0000 </r>
       <r>   18.2043    0.0000 </r>
       <r>   18.3830    0.0000 </r>
       <r>   18.4568    0.0000 </r>
       <r>   18.5011    0.0000 </r>
      </set>
     </set>
    </set>
   </array>
  </eigenvalues>
  <separator name="orbital magnetization" >
   <v name="MAGDIPOLOUT">      0.00000000      0.00000000      0.00000000</v>
  </separator>
  <dos>
   <i name="efermi">      9.85073962 </i>
   <total>
    <array>
     <dimension dim="1">gridpoints</dimension>
     <dimension dim="2">spin</dimension>
     <field>energy</field>
     <field>total</field>
     <field>integrated</field>
     <set>
      <set comment="spin 1">
       <r>   -13.4528     0.0000     0.0000 </r>
       <r>   -13.3302     0.0000     0.0000 </r>
       <r>   -13.2077     0.0000     0.0000 </r>
       <r>   -13.0851     0.0000     0.0000 </r>
       <r>   -12.9625     0.0000     0.0000 </r>
       <r>   -12.8400     0.0000     0.0000 </r>
       <r>   -12.7174     0.0000     0.0000 </r>
       <r>   -12.5948     0.0000     0.0000 </r>
       <r>   -12.4722     0.0000     0.0000 </r>
       <r>   -12.3497     0.0000     0.0000 </r>
       <r>   -12.2271     0.0000     0.0000 </r>
       <r>   -12.1045     0.0000     0.0000 </r>
       <r>   -11.9820     0.0000     0.0000 </r>
       <r>   -11.8594     0.0000     0.0000 </r>
       <r>   -11.7368     0.0224     0.0027 </r>
       <r>   -11.6143     0.1343     0.0192 </r>
       <r>   -11.4917     0.2686     0.0521 </r>
       <r>   -11.3691     0.1791     0.0741 </r>
       <r>   -11.2465     0.0000     0.0905 </r>
       <r>   -11.1240     0.0006     0.1565 </r>
       <r>   -11.0014     0.0000     0.2222 </r>
       <r>   -10.8788     0.1184     0.2367 </r>
       <r>   -10.7563     0.5989     0.3286 </r>
       <r>   -10.6337     0.5349     0.4030 </r>
       <r>   -10.5111     0.5372     0.4691 </r>
       <r>   -10.3886     0.1791     0.4911 </r>
       <r>   -10.2660     0.5372     0.5569 </r>
       <r>   -10.1434     1.0744     0.6886 </r>
       <r>   -10.0209     0.0000     0.6886 </r>
       <r>    -9.8983     0.0001     0.7051 </r>
       <r>    -9.7757     0.0094     0.8379 </r>
       <r>    -9.6531     0.1982     0.9598 </r>
       <r>    -9.5306     0.4504     1.0566 </r>
       <r>    -9.4080     1.0719     1.1986 </r>
       <r>    -9.2854     0.5372     1.2647 </r>
       <r>    -9.1629     0.0000     1.2647 </r>
       <r>    -9.0403     0.5372     1.3306 </r>
       <r>    -8.9177     0.6715     1.4129 </r>
       <r>    -8.7952     0.5394     1.6107 </r>
       <r>    -8.6726     0.0000     1.6982 </r>
       <r>    -8.5500     1.1839     1.8433 </r>
       <r>    -8.4274     1.0356     2.0227 </r>
       <r>    -8.3049     0.0000     2.0274 </r>
       <r>    -8.1823     0.2686     2.0604 </r>
       <r>    -8.0597     1.0744     2.1920 </r>
       <r>    -7.9372     0.5373     2.3237 </r>
       <r>    -7.8146     0.4061     2.5052 </r>
       <r>    -7.6920     0.0007     2.5378 </r>
       <r>    -7.5695     1.2490     2.7567 </r>
       <r>    -7.4469     0.0000     2.8011 </r>
       <r>    -7.3243     0.6900     2.8857 </r>
       <r>    -7.2018     1.3814     3.1350 </r>
       <r>    -7.0792     0.5372     3.3278 </r>
       <r>    -6.9566     0.2526     3.3588 </r>
       <r>    -6.8340     1.4747     3.5744 </r>
       <r>    -6.7115     1.0744     3.7229 </r>
       <r>    -6.5889     0.0000     3.7449 </r>
       <r>    -6.4663     1.3440     3.9096 </r>
       <r>    -6.3438     0.4022     4.0575 </r>
       <r>    -6.2212     1.0744     4.1893 </r>
       <r>    -6.0986     0.5417     4.3215 </r>
       <r>    -5.9761     0.8272     4.6967 </r>
       <r>    -5.8535     2.2171     4.9878 </r>
       <r>    -5.7309     0.0000     5.0453 </r>
       <r>    -5.6083     1.5321     5.2331 </r>
       <r>    -5.4858     0.5370     5.3086 </r>
       <r>    -5.3632     1.0744     5.4403 </r>
       <r>    -5.2406     3.0006     5.8081 </r>
       <r>    -5.1181     0.0000     5.9012 </r>
       <r>    -4.9955     0.5372     5.9671 </r>
       <r>    -4.8729     0.8529     6.0716 </r>
       <r>    -4.7504     0.1346     6.3128 </r>
       <r>    -4.6278     0.4888     6.4166 </r>
       <r>    -4.5052     0.2450     6.4745 </r>
       <r>    -4.3827     1.4748     6.6911 </r>
       <r>    -4.2601     1.0744     6.8724 </r>
       <r>    -4.1375     1.0744     7.0041 </r>
       <r>    -4.0149     2.6037     7.3232 </r>
       <r>    -3.8924     0.0000     7.3333 </r>
       <r>    -3.7698     0.0000     7.3333 </r>
       <r>    -3.6472     0.9849     7.4650 </r>
       <r>    -3.5247     1.0768     7.5970 </r>
       <r>    -3.4021     0.1791     7.6626 </r>
       <r>    -3.2795     0.2477     7.6929 </r>
       <r>    -3.1570     0.0951     7.7401 </r>
       <r>    -3.0344     1.3950     8.0009 </r>
       <r>    -2.9118     1.0747     8.2058 </r>
       <r>    -2.7892     0.5287     8.3254 </r>
       <r>    -2.6667     2.0656     8.5797 </r>
       <r>    -2.5441     0.9843     8.7215 </r>
       <r>    -2.4215     0.0000     8.7874 </r>
       <r>    -2.2990     2.2782     9.0666 </r>
       <r>    -2.1764     0.5372     9.2154 </r>
       <r>    -2.0538     1.0744     9.3471 </r>
       <r>    -1.9313     0.2686     9.4129 </r>
       <r>    -1.8087     2.3026     9.7610 </r>
       <r>    -1.6861     1.4101     9.9918 </r>
       <r>    -1.5636     0.9765    10.3227 </r>
       <r>    -1.4410     1.6116    10.5322 </r>
       <r>    -1.3184     2.1487    10.8614 </r>
       <r>    -1.1958     3.2025    11.2704 </r>
       <r>    -1.0733     0.1791    11.5034 </r>
       <r>    -0.9507     0.2683    11.5363 </r>
       <r>    -0.8281     0.6156    11.6447 </r>
       <r>    -0.7056     0.5372    11.8326 </r>
       <r>    -0.5830     2.3506    12.1208 </r>
       <r>    -0.4604     0.5258    12.2263 </r>
       <r>    -0.3379     0.0000    12.2936 </r>
       <r>    -0.2153     0.0000    12.2936 </r>
       <r>    -0.0927     1.0312    12.4200 </r>
       <r>     0.0299     0.5162    12.5544 </r>
       <r>     0.1524     1.7327    12.8571 </r>
       <r>     0.2750     0.0002    12.9191 </r>
       <r>     0.3976     0.4833    13.0661 </r>
       <r>     0.5201     1.9381    13.3432 </r>
       <r>     0.6427     0.6505    13.4597 </r>
       <r>     0.7653     1.1355    13.6234 </r>
       <r>     0.8878     1.1419    13.8876 </r>
       <r>     1.0104     1.0073    14.0686 </r>
       <r>     1.1330     2.8903    14.4750 </r>
       <r>     1.2555     0.4237    14.7104 </r>
       <r>     1.3781     0.3499    14.8440 </r>
       <r>     1.5007     2.4177    15.1962 </r>
       <r>     1.6233     0.5372    15.2949 </r>
       <r>     1.7458     1.8526    15.5220 </r>
       <r>     1.8684     1.5069    15.8088 </r>
       <r>     1.9910     1.8338    16.3921 </r>
       <r>     2.1135     0.0253    16.4503 </r>
       <r>     2.2361     0.5304    16.5780 </r>
       <r>     2.3587     0.5787    16.7266 </r>
       <r>     2.4812     0.9770    16.9949 </r>
       <r>     2.6038     3.3702    17.5571 </r>
       <r>     2.7264     0.8058    17.7476 </r>
       <r>     2.8490     2.0806    18.0136 </r>
       <r>     2.9715     1.5072    18.3823 </r>
       <r>     3.0941     2.1417    18.8331 </r>
       <r>     3.2167     2.0386    19.0949 </r>
       <r>     3.3392     2.4131    19.5358 </r>
       <r>     3.4618     0.1356    19.5749 </r>
       <r>     3.5844     2.5241    20.0049 </r>
       <r>     3.7069     2.5424    20.3473 </r>
       <r>     3.8295     0.1791    20.5624 </r>
       <r>     3.9521     4.1373    21.0970 </r>
       <r>     4.0746     4.7631    21.7827 </r>
       <r>     4.1972     2.7632    22.4594 </r>
       <r>     4.3198     1.1192    22.6091 </r>
       <r>     4.4424     1.2157    22.7800 </r>
       <r>     4.5649     0.9007    22.9499 </r>
       <r>     4.6875     2.0931    23.2277 </r>
       <r>     4.8101     2.4869    23.7698 </r>
       <r>     4.9326     2.3298    24.1127 </r>
       <r>     5.0552     2.2374    24.5513 </r>
       <r>     5.1778     1.1444    24.7795 </r>
       <r>     5.3003     4.1498    25.3125 </r>
       <r>     5.4229     1.3090    25.7215 </r>
       <r>     5.5455     1.8309    25.9940 </r>
       <r>     5.6681     0.4904    26.2028 </r>
       <r>     5.7906     2.0592    26.5597 </r>
       <r>     5.9132     1.3068    26.7198 </r>
       <r>     6.0358     1.6114    27.1687 </r>
       <r>     6.1583     2.6229    27.5012 </r>
       <r>     6.2809     1.8038    27.8068 </r>
       <r>     6.4035     0.6140    28.1658 </r>
       <r>     6.5260     2.9910    28.6821 </r>
       <r>     6.6486     1.3540    28.9040 </r>
       <r>     6.7712     2.0752    29.1789 </r>
       <r>     6.8937     0.6261    29.4402 </r>
       <r>     7.0163     0.4725    29.5202 </r>
       <r>     7.1389     1.2356    29.7344 </r>
       <r>     7.2615     2.6263    30.1024 </r>
       <r>     7.3840     1.4916    30.4133 </r>
       <r>     7.5066     1.1978    30.6352 </r>
       <r>     7.6292     0.0895    30.6968 </r>
       <r>     7.7517     0.7162    30.7846 </r>
       <r>     7.8743     0.5980    30.8579 </r>
       <r>     7.9969     0.2689    30.9822 </r>
       <r>     8.1194     0.8092    31.1143 </r>
       <r>     8.2420     0.7163    31.2346 </r>
       <r>     8.3646     0.7163    31.4870 </r>
       <r>     8.4872     0.4435    31.5413 </r>
       <r>     8.6097     0.3573    31.6021 </r>
       <r>     8.7323     0.0000    31.6022 </r>
       <r>     8.8549     0.7149    31.6898 </r>
       <r>     8.9774     0.2686    31.7668 </r>
       <r>     9.1000     0.6913    31.8515 </r>
       <r>     9.2226     0.3238    31.9053 </r>
       <r>     9.3451     0.1343    31.9424 </r>
       <r>     9.4677     0.1343    31.9588 </r>
       <r>     9.5903     0.1919    31.9824 </r>
       <r>     9.7128     0.0255    31.9949 </r>
       <r>     9.8354     0.0224    32.0000 </r>
       <r>     9.9580     0.0000    32.0000 </r>
       <r>    10.0806     0.0000    32.0000 </r>
       <r>    10.2031     0.0000    32.0000 </r>
       <r>    10.3257     0.0000    32.0000 </r>
       <r>    10.4483     0.0000    32.0000 </r>
       <r>    10.5708     0.0000    32.0000 </r>
       <r>    10.6934     0.0000    32.0000 </r>
       <r>    10.8160     0.0000    32.0000 </r>
       <r>    10.9385     0.0000    32.0000 </r>
       <r>    11.0611     0.0000    32.0000 </r>
       <r>    11.1837     0.0000    32.0000 </r>
       <r>    11.3063     0.0000    32.0000 </r>
       <r>    11.4288     0.0000    32.0000 </r>
       <r>    11.5514     0.0000    32.0000 </r>
       <r>    11.6740     0.0000    32.0000 </r>
       <r>    11.7965     0.0000    32.0000 </r>
       <r>    11.9191     0.0000    32.0000 </r>
       <r>    12.0417     0.0000    32.0000 </r>
       <r>    12.1642     0.0000    32.0000 </r>
       <r>    12.2868     0.0000    32.0000 </r>
       <r>    12.4094     0.0000    32.0000 </r>
       <r>    12.5319     0.0000    32.0000 </r>
       <r>    12.6545     0.0000    32.0000 </r>
       <r>    12.7771     0.0000    32.0000 </r>
       <r>    12.8997     0.0000    32.0000 </r>
       <r>    13.0222     0.0000    32.0000 </r>
       <r>    13.1448     0.0000    32.0000 </r>
       <r>    13.2674     0.0000    32.0000 </r>
       <r>    13.3899     0.0000    32.0000 </r>
       <r>    13.5125     0.0000    32.0000 </r>
       <r>    13.6351     0.0000    32.0000 </r>
       <r>    13.7576     0.0000    32.0000 </r>
       <r>    13.8802     0.2686    32.0329 </r>
       <r>    14.0028     0.1447    32.0507 </r>
       <r>    14.1254     0.0000    32.0658 </r>
       <r>    14.2479     0.0000    32.0658 </r>
       <r>    14.3705     1.2094    32.2141 </r>
       <r>    14.4931     0.5851    32.2912 </r>
       <r>    14.6156     0.8257    32.5182 </r>
       <r>    14.7382     0.0000    32.6091 </r>
       <r>    14.8608     1.1490    32.7499 </r>
       <r>    14.9833     0.0448    32.8066 </r>
       <r>    15.1059     0.0490    32.8290 </r>
       <r>    15.2285     0.8287    33.0124 </r>
       <r>    15.3510     0.7645    33.2899 </r>
       <r>    15.4736     1.4116    33.5502 </r>
       <r>    15.5962     2.1003    33.8487 </r>
       <r>    15.7188     0.0000    33.9808 </r>
       <r>    15.8413     2.9986    34.3483 </r>
       <r>    15.9639     0.5391    34.4474 </r>
       <r>    16.0865     2.5228    34.8113 </r>
       <r>    16.2090     2.6067    35.1508 </r>
       <r>    16.3316     2.1466    35.4401 </r>
       <r>    16.4542     0.5376    35.5062 </r>
       <r>    16.5767     1.4306    35.7693 </r>
       <r>    16.6993     2.5489    36.1149 </r>
       <r>    16.8219     1.0006    36.2872 </r>
       <r>    16.9445     0.5371    36.4938 </r>
       <r>    17.0670     3.2972    36.8980 </r>
       <r>    17.1896     0.3665    37.0984 </r>
       <r>    17.3122     3.8512    37.7286 </r>
       <r>    17.4347     3.1798    38.1511 </r>
       <r>    17.5573     3.0795    38.6600 </r>
       <r>    17.6799     2.9900    39.2965 </r>
       <r>    17.8024     1.1639    39.5556 </r>
       <r>    17.9250     1.1338    39.7384 </r>
       <r>    18.0476     3.1153    40.2611 </r>
       <r>    18.1701     1.1867    40.5350 </r>
       <r>    18.2927     2.3683    40.9981 </r>
       <r>    18.4153     2.4723    41.5376 </r>
       <r>    18.5379     4.3626    42.3399 </r>
       <r>    18.6604     4.2211    42.9591 </r>
       <r>    18.7830     0.7880    43.4491 </r>
       <r>    18.9056     0.7273    43.6996 </r>
       <r>    19.0281     1.0459    43.8538 </r>
       <r>    19.1507     2.9673    44.2814 </r>
       <r>    19.2733     0.6134    44.5032 </r>
       <r>    19.3958     2.2723    44.9754 </r>
       <r>    19.5184     4.6761    45.6596 </r>
       <r>    19.6410     0.5034    45.7517 </r>
       <r>    19.7636     1.8500    46.0265 </r>
       <r>    19.8861     1.6665    46.3332 </r>
       <r>    20.0087     0.0000    46.3484 </r>
       <r>    20.1313     1.8139    46.5707 </r>
       <r>    20.2538     1.6499    47.0884 </r>
       <r>    20.3764     0.0002    47.1825 </r>
       <r>    20.4990     1.1228    47.3310 </r>
       <r>    20.6215     1.2233    47.6616 </r>
       <r>    20.7441     0.5265    47.8396 </r>
       <r>    20.8667     0.2197    47.8898 </r>
       <r>    20.9892     0.0000    47.9342 </r>
       <r>    21.1118     0.0000    47.9342 </r>
       <r>    21.2344     0.0000    47.9342 </r>
       <r>    21.3570     0.0000    47.9342 </r>
       <r>    21.4795     0.0000    47.9342 </r>
       <r>    21.6021     0.2157    47.9606 </r>
       <r>    21.7247     0.0895    48.0000 </r>
       <r>    21.8472     0.0000    48.0000 </r>
       <r>    21.9698     0.0000    48.0000 </r>
       <r>    22.0924     0.0000    48.0000 </r>
       <r>    22.2149     0.0000    48.0000 </r>
       <r>    22.3375     0.0000    48.0000 </r>
       <r>    22.4601     0.0000    48.0000 </r>
       <r>    22.5827     0.0000    48.0000 </r>
       <r>    22.7052     0.0000    48.0000 </r>
       <r>    22.8278     0.0000    48.0000 </r>
       <r>    22.9504     0.0000    48.0000 </r>
       <r>    23.0729     0.0000    48.0000 </r>
       <r>    23.1955     0.0000    48.0000 </r>
       <r>    23.3181     0.0000    48.0000 </r>
      </set>
     </set>
    </array>
   </total>
  </dos>
 </calculation>
 <structure name="finalpos" >
  <crystal>
   <varray name="basis" >
    <v>       3.57361068       0.00000000       0.00000000 </v>
    <v>       0.00000000       3.57361068       0.00000000 </v>
    <v>       0.00000000       0.00000000       3.57361068 </v>
   </varray>
   <i name="volume">     45.63748602 </i>
   <varray name="rec_basis" >
    <v>       0.27982903       0.00000000       0.00000000 </v>
    <v>       0.00000000       0.27982903       0.00000000 </v>
    <v>       0.00000000       0.00000000       0.27982903 </v>
   </varray>
  </crystal>
  <varray name="positions" >
   <v>       0.00279829       0.00000000       0.00000000 </v>
   <v>       0.50000000       0.50000000       0.00000000 </v>
   <v>       0.50000000       0.00000000       0.50000000 </v>
   <v>       0.00000000       0.50000000       0.50000000 </v>
   <v>       0.25000000       0.25000000       0.25000000 </v>
   <v>       0.75000000       0.75000000       0.25000000 </v>
   <v>       0.75000000       0.25000000       0.75000000 </v>
   <v>       0.25000000       0.75000000       0.75000000 </v>
  </varray>
 </structure>
</modeling>
